
 **** DERIVATIVE DATABASE ****    
+DDB, Version number    100401

 Total ddb

    usepaw         0
     natom         7
      nkpt        81
    nsppol         1
      nsym        12
    ntypat         2
    occopt         3
     nband        24
     acell  0.81231040778000D+01  0.81231040777000D+01  0.37000000000000D+02
       amu  0.69410000000000D+01  0.12011000000000D+02
   dilatmx  0.10000000000000D+01
      ecut  0.20000000000000D+02
    ecutsm  0.50000000000000D+00
     intxc         0
      iscf         4
       ixc        11
       kpt  0.00000000000000D+00  0.00000000000000D+00  0.00000000000000D+00
            0.11111111111111D+00  0.00000000000000D+00  0.00000000000000D+00
            0.22222222222222D+00  0.00000000000000D+00  0.00000000000000D+00
            0.33333333333333D+00  0.00000000000000D+00  0.00000000000000D+00
            0.44444444444444D+00  0.00000000000000D+00  0.00000000000000D+00
           -0.44444444444444D+00  0.00000000000000D+00  0.00000000000000D+00
           -0.33333333333333D+00  0.00000000000000D+00  0.00000000000000D+00
           -0.22222222222222D+00  0.00000000000000D+00  0.00000000000000D+00
           -0.11111111111111D+00  0.00000000000000D+00  0.00000000000000D+00
            0.00000000000000D+00  0.11111111111111D+00  0.00000000000000D+00
            0.11111111111111D+00  0.11111111111111D+00  0.00000000000000D+00
            0.22222222222222D+00  0.11111111111111D+00  0.00000000000000D+00
            0.33333333333333D+00  0.11111111111111D+00  0.00000000000000D+00
            0.44444444444444D+00  0.11111111111111D+00  0.00000000000000D+00
           -0.44444444444444D+00  0.11111111111111D+00  0.00000000000000D+00
           -0.33333333333333D+00  0.11111111111111D+00  0.00000000000000D+00
           -0.22222222222222D+00  0.11111111111111D+00  0.00000000000000D+00
           -0.11111111111111D+00  0.11111111111111D+00  0.00000000000000D+00
            0.00000000000000D+00  0.22222222222222D+00  0.00000000000000D+00
            0.11111111111111D+00  0.22222222222222D+00  0.00000000000000D+00
            0.22222222222222D+00  0.22222222222222D+00  0.00000000000000D+00
            0.33333333333333D+00  0.22222222222222D+00  0.00000000000000D+00
            0.44444444444444D+00  0.22222222222222D+00  0.00000000000000D+00
           -0.44444444444444D+00  0.22222222222222D+00  0.00000000000000D+00
           -0.33333333333333D+00  0.22222222222222D+00  0.00000000000000D+00
           -0.22222222222222D+00  0.22222222222222D+00  0.00000000000000D+00
           -0.11111111111111D+00  0.22222222222222D+00  0.00000000000000D+00
            0.00000000000000D+00  0.33333333333333D+00  0.00000000000000D+00
            0.11111111111111D+00  0.33333333333333D+00  0.00000000000000D+00
            0.22222222222222D+00  0.33333333333333D+00  0.00000000000000D+00
            0.33333333333333D+00  0.33333333333333D+00  0.00000000000000D+00
            0.44444444444444D+00  0.33333333333333D+00  0.00000000000000D+00
           -0.44444444444444D+00  0.33333333333333D+00  0.00000000000000D+00
           -0.33333333333333D+00  0.33333333333333D+00  0.00000000000000D+00
           -0.22222222222222D+00  0.33333333333333D+00  0.00000000000000D+00
           -0.11111111111111D+00  0.33333333333333D+00  0.00000000000000D+00
            0.00000000000000D+00  0.44444444444444D+00  0.00000000000000D+00
            0.11111111111111D+00  0.44444444444444D+00  0.00000000000000D+00
            0.22222222222222D+00  0.44444444444444D+00  0.00000000000000D+00
            0.33333333333333D+00  0.44444444444444D+00  0.00000000000000D+00
            0.44444444444444D+00  0.44444444444444D+00  0.00000000000000D+00
           -0.44444444444444D+00  0.44444444444444D+00  0.00000000000000D+00
           -0.33333333333333D+00  0.44444444444444D+00  0.00000000000000D+00
           -0.22222222222222D+00  0.44444444444444D+00  0.00000000000000D+00
           -0.11111111111111D+00  0.44444444444444D+00  0.00000000000000D+00
            0.00000000000000D+00 -0.44444444444444D+00  0.00000000000000D+00
            0.11111111111111D+00 -0.44444444444444D+00  0.00000000000000D+00
            0.22222222222222D+00 -0.44444444444444D+00  0.00000000000000D+00
            0.33333333333333D+00 -0.44444444444444D+00  0.00000000000000D+00
            0.44444444444444D+00 -0.44444444444444D+00  0.00000000000000D+00
           -0.44444444444444D+00 -0.44444444444444D+00  0.00000000000000D+00
           -0.33333333333333D+00 -0.44444444444444D+00  0.00000000000000D+00
           -0.22222222222222D+00 -0.44444444444444D+00  0.00000000000000D+00
           -0.11111111111111D+00 -0.44444444444444D+00  0.00000000000000D+00
            0.00000000000000D+00 -0.33333333333333D+00  0.00000000000000D+00
            0.11111111111111D+00 -0.33333333333333D+00  0.00000000000000D+00
            0.22222222222222D+00 -0.33333333333333D+00  0.00000000000000D+00
            0.33333333333333D+00 -0.33333333333333D+00  0.00000000000000D+00
            0.44444444444444D+00 -0.33333333333333D+00  0.00000000000000D+00
           -0.44444444444444D+00 -0.33333333333333D+00  0.00000000000000D+00
           -0.33333333333333D+00 -0.33333333333333D+00  0.00000000000000D+00
           -0.22222222222222D+00 -0.33333333333333D+00  0.00000000000000D+00
           -0.11111111111111D+00 -0.33333333333333D+00  0.00000000000000D+00
            0.00000000000000D+00 -0.22222222222222D+00  0.00000000000000D+00
            0.11111111111111D+00 -0.22222222222222D+00  0.00000000000000D+00
            0.22222222222222D+00 -0.22222222222222D+00  0.00000000000000D+00
            0.33333333333333D+00 -0.22222222222222D+00  0.00000000000000D+00
            0.44444444444444D+00 -0.22222222222222D+00  0.00000000000000D+00
           -0.44444444444444D+00 -0.22222222222222D+00  0.00000000000000D+00
           -0.33333333333333D+00 -0.22222222222222D+00  0.00000000000000D+00
           -0.22222222222222D+00 -0.22222222222222D+00  0.00000000000000D+00
           -0.11111111111111D+00 -0.22222222222222D+00  0.00000000000000D+00
            0.00000000000000D+00 -0.11111111111111D+00  0.00000000000000D+00
            0.11111111111111D+00 -0.11111111111111D+00  0.00000000000000D+00
            0.22222222222222D+00 -0.11111111111111D+00  0.00000000000000D+00
            0.33333333333333D+00 -0.11111111111111D+00  0.00000000000000D+00
            0.44444444444444D+00 -0.11111111111111D+00  0.00000000000000D+00
           -0.44444444444444D+00 -0.11111111111111D+00  0.00000000000000D+00
           -0.33333333333333D+00 -0.11111111111111D+00  0.00000000000000D+00
           -0.22222222222222D+00 -0.11111111111111D+00  0.00000000000000D+00
           -0.11111111111111D+00 -0.11111111111111D+00  0.00000000000000D+00
    kptnrm  0.10000000000000D+01
     ngfft        36   36  150
    nspden         1
   nspinor         1
       occ  0.20000000000000D+01  0.20000000000000D+01  0.20000000000000D+01
            0.20000000000000D+01  0.20000000000000D+01  0.20000000000000D+01
            0.20000000000000D+01  0.20000000000000D+01  0.20000000000000D+01
            0.20000000000000D+01  0.20000000000000D+01  0.20000000000000D+01
            0.20000000000000D+01  0.20000000000000D+01  0.19999999967598D+01
            0.19999957657016D+01  0.83855912809505D-01  0.37884266428846D-12
            0.00000000000000D+00  0.00000000000000D+00  0.00000000000000D+00
            0.00000000000000D+00  0.00000000000000D+00  0.00000000000000D+00
     rprim  0.10000000000000D+01  0.45546448031000D-30  0.00000000000000D+00
            0.50000000000000D+00  0.86602540378000D+00  0.00000000000000D+00
            0.00000000000000D+00  0.00000000000000D+00  0.10000000000000D+01
  dfpt_sciss  0.00000000000000D+00
    spinat  0.00000000000000D+00  0.00000000000000D+00  0.00000000000000D+00
            0.00000000000000D+00  0.00000000000000D+00  0.00000000000000D+00
            0.00000000000000D+00  0.00000000000000D+00  0.00000000000000D+00
            0.00000000000000D+00  0.00000000000000D+00  0.00000000000000D+00
            0.00000000000000D+00  0.00000000000000D+00  0.00000000000000D+00
            0.00000000000000D+00  0.00000000000000D+00  0.00000000000000D+00
            0.00000000000000D+00  0.00000000000000D+00  0.00000000000000D+00
    symafm         1    1    1    1    1    1    1    1    1    1    1    1
    symrel         1    0    0    0    1    0    0    0    1
                  -1    1    0    0    1    0    0    0    1
                   0    1    0   -1    1    0    0    0    1
                  -1    0    0   -1    1    0    0    0    1
                  -1    1    0   -1    0    0    0    0    1
                   0   -1    0   -1    0    0    0    0    1
                  -1    0    0    0   -1    0    0    0    1
                   1   -1    0    0   -1    0    0    0    1
                   0   -1    0    1   -1    0    0    0    1
                   1    0    0    1   -1    0    0    0    1
                   1   -1    0    1    0    0    0    0    1
                   0    1    0    1    0    0    0    0    1
     tnons  0.00000000000000D+00  0.00000000000000D+00  0.00000000000000D+00
           -0.48978931284000D-38  0.24489465642000D-38  0.00000000000000D+00
            0.00000000000000D+00  0.24489465642000D-38  0.00000000000000D+00
           -0.24489465642000D-38  0.00000000000000D+00  0.00000000000000D+00
           -0.24489465642000D-38  0.48978931284000D-38  0.00000000000000D+00
            0.00000000000000D+00  0.00000000000000D+00  0.00000000000000D+00
           -0.48978931284000D-38  0.48978931284000D-38  0.00000000000000D+00
            0.00000000000000D+00  0.24489465642000D-38  0.00000000000000D+00
           -0.48978931284000D-38  0.24489465642000D-38  0.00000000000000D+00
           -0.24489465642000D-38  0.48978931284000D-38  0.00000000000000D+00
           -0.24489465642000D-38  0.00000000000000D+00  0.00000000000000D+00
           -0.48978931284000D-38  0.48978931284000D-38  0.00000000000000D+00
    tolwfr  0.10000000000000D+01
   tphysel  0.00000000000000D+00
    tsmear  0.10000000000000D-01
     typat         1    2    2    2    2    2    2
       wtk  0.12345679012346D-01  0.12345679012346D-01  0.12345679012346D-01
            0.12345679012346D-01  0.12345679012346D-01  0.12345679012346D-01
            0.12345679012346D-01  0.12345679012346D-01  0.12345679012346D-01
            0.12345679012346D-01  0.12345679012346D-01  0.12345679012346D-01
            0.12345679012346D-01  0.12345679012346D-01  0.12345679012346D-01
            0.12345679012346D-01  0.12345679012346D-01  0.12345679012346D-01
            0.12345679012346D-01  0.12345679012346D-01  0.12345679012346D-01
            0.12345679012346D-01  0.12345679012346D-01  0.12345679012346D-01
            0.12345679012346D-01  0.12345679012346D-01  0.12345679012346D-01
            0.12345679012346D-01  0.12345679012346D-01  0.12345679012346D-01
            0.12345679012346D-01  0.12345679012346D-01  0.12345679012346D-01
            0.12345679012346D-01  0.12345679012346D-01  0.12345679012346D-01
            0.12345679012346D-01  0.12345679012346D-01  0.12345679012346D-01
            0.12345679012346D-01  0.12345679012346D-01  0.12345679012346D-01
            0.12345679012346D-01  0.12345679012346D-01  0.12345679012346D-01
            0.12345679012346D-01  0.12345679012346D-01  0.12345679012346D-01
            0.12345679012346D-01  0.12345679012346D-01  0.12345679012346D-01
            0.12345679012346D-01  0.12345679012346D-01  0.12345679012346D-01
            0.12345679012346D-01  0.12345679012346D-01  0.12345679012346D-01
            0.12345679012346D-01  0.12345679012346D-01  0.12345679012346D-01
            0.12345679012346D-01  0.12345679012346D-01  0.12345679012346D-01
            0.12345679012346D-01  0.12345679012346D-01  0.12345679012346D-01
            0.12345679012346D-01  0.12345679012346D-01  0.12345679012346D-01
            0.12345679012346D-01  0.12345679012346D-01  0.12345679012346D-01
            0.12345679012346D-01  0.12345679012346D-01  0.12345679012346D-01
            0.12345679012346D-01  0.12345679012346D-01  0.12345679012346D-01
            0.12345679012346D-01  0.12345679012346D-01  0.12345679012346D-01
      xred -0.24489465642000D-38  0.24489465642000D-38  0.93792418359000D-01
            0.33322800767000D+00 -0.15620948894751D-46 -0.12125541818000D-05
            0.66677199233000D+00 -0.77167173368383D-46 -0.12125541818000D-05
            0.16166953519239D-16  0.33322800767000D+00 -0.12125541818000D-05
            0.24328937152227D-16  0.66677199233000D+00 -0.12125541818000D-05
            0.66677199233000D+00  0.33322800767000D+00 -0.12125541818000D-05
            0.33322800767000D+00  0.66677199233000D+00 -0.12125541818000D-05
     znucl  0.30000000000000D+01  0.60000000000000D+01
      zion  0.30000000000000D+01  0.40000000000000D+01
 
  Description of the potentials (KB energies)
  vrsio8 (for pseudopotentials)=100401
  usepaw =  0
  dimekb =  4       lmnmax=  4
  Atom type=    1   pspso=  0   nekb=   4
  iln lpsang iproj  ekb(:)
     1     0     1    -5.1853475E+00  0.0000000E+00  0.0000000E+00  0.0000000E+00
     2     0     2     0.0000000E+00 -1.8784960E+00  0.0000000E+00  0.0000000E+00
     3     1     1     0.0000000E+00  0.0000000E+00 -9.4592488E+00  0.0000000E+00
     4     1     2     0.0000000E+00  0.0000000E+00  0.0000000E+00 -1.0957226E+00
  Atom type=    2   pspso=  0   nekb=   4
  iln lpsang iproj  ekb(:)
     1     0     1     6.4422859E+00  0.0000000E+00  0.0000000E+00  0.0000000E+00
     2     0     2     0.0000000E+00  4.0708983E-01  0.0000000E+00  0.0000000E+00
     3     1     1     0.0000000E+00  0.0000000E+00 -4.6758921E+00  0.0000000E+00
     4     1     2     0.0000000E+00  0.0000000E+00  0.0000000E+00 -1.1206181E+00
 
 **** Database of total energy derivatives ****
 Number of data blocks=    3
  
 2nd derivatives (non-stat.)  - # elements :     468
 qpt  0.00000000E+00  0.00000000E+00  0.00000000E+00   1.0
   3   1   1   1 -0.31983844983484D-13  0.00000000000000D+00
   1   2   1   1 -0.18183216159376D+01 -0.82759287602090D-19
   2   2   1   1 -0.90916080792049D+00 -0.26485762969698D-18
   3   2   1   1  0.19641257184363D+02  0.13472782006501D-18
   1   3   1   1 -0.18183216159376D+01 -0.12212964701518D-18
   2   3   1   1 -0.90916080792049D+00 -0.46829547041276D-19
   3   3   1   1 -0.19641257184363D+02 -0.52275098314964D-19
   1   4   1   1  0.51112112065330D-01 -0.82435732100651D-19
   2   4   1   1 -0.90916080793994D+00  0.66010443655248D-19
   3   4   1   1  0.98206285925088D+01 -0.36271651161777D-18
   1   5   1   1  0.51112112065331D-01 -0.27576930348009D-18
   2   5   1   1 -0.90916080793994D+00 -0.45194355496715D-19
   3   5   1   1 -0.98206285925088D+01  0.89354496659195D-19
   1   6   1   1  0.51112111840556D-01 -0.14014803458807D-18
   2   6   1   1  0.96027291986968D+00 -0.13861065029114D-18
   3   6   1   1 -0.98206285928789D+01  0.93515599030131D-19
   1   7   1   1  0.51112111840558D-01 -0.14326253185522D-18
   2   7   1   1  0.96027291986968D+00 -0.65429145270970D-19
   3   7   1   1  0.98206285928789D+01 -0.24130208510794D-18
   2   9   1   1  0.00000000000000D+00  0.00000000000000D+00
   3   9   1   1  0.00000000000000D+00  0.00000000000000D+00
   3   1   2   1 -0.35434686822579D-14  0.00000000000000D+00
   1   2   2   1 -0.90916080792049D+00 -0.26485762969698D-18
   2   2   2   1  0.51112111728951D-01  0.87354919872623D-19
   3   2   2   1  0.98206285918757D+01  0.13150568352271D-18
   1   3   2   1 -0.90916080792049D+00 -0.46829547041276D-19
   2   3   2   1  0.51112111728942D-01  0.26642417546769D-18
   3   3   2   1 -0.98206285918757D+01  0.27787745966306D-18
   1   4   2   1 -0.90916080793994D+00  0.66010443655248D-19
   2   4   2   1 -0.18183216157230D+01 -0.33479618539177D-18
   3   4   2   1  0.19641257184024D+02 -0.10564757655676D-18
   1   5   2   1 -0.90916080793994D+00 -0.45194355496715D-19
   2   5   2   1 -0.18183216157230D+01  0.70270422567576D-19
   3   5   2   1 -0.19641257184024D+02  0.16388468380215D-18
   1   6   2   1  0.96027291986968D+00 -0.13861065029114D-18
   2   6   2   1  0.51112112094080D-01  0.61012546297264D-19
   3   6   2   1  0.98206285912743D+01 -0.60629448559089D-19
   1   7   2   1  0.96027291986968D+00 -0.65429145270970D-19
   2   7   2   1  0.51112112094077D-01  0.12154990040434D-18
   3   7   2   1 -0.98206285912743D+01  0.11860994451954D-19
   1   9   2   1  0.00000000000000D+00  0.00000000000000D+00
   3   9   2   1  0.00000000000000D+00  0.00000000000000D+00
   1   1   3   1 -0.31983844983484D-13  0.00000000000000D+00
   2   1   3   1 -0.35434686822579D-14  0.00000000000000D+00
   1   2   3   1  0.93550364910190D+01  0.13472782006501D-18
   2   2   3   1  0.46775182452038D+01  0.13150568352271D-18
   3   2   3   1 -0.24552210985236D+02 -0.37781749876044D-14
   1   3   3   1 -0.93550364910190D+01 -0.52275098314964D-19
   2   3   3   1 -0.46775182452038D+01  0.27787745966306D-18
   3   3   3   1 -0.24552210985235D+02 -0.10895290985213D-14
   1   4   3   1  0.46775182458369D+01 -0.36271651161777D-18
   2   4   3   1  0.93550364906806D+01 -0.10564757655676D-18
   3   4   3   1 -0.24552210993542D+02 -0.60478117844765D-14
   1   5   3   1 -0.46775182458369D+01  0.89354496659195D-19
   2   5   3   1 -0.93550364906806D+01  0.16388468380215D-18
   3   5   3   1 -0.24552210993542D+02 -0.65905350426000D-14
   1   6   3   1 -0.46775182462071D+01  0.93515599030131D-19
   2   6   3   1  0.46775182446025D+01 -0.60629448559089D-19
   3   6   3   1 -0.24552210990377D+02  0.50284175765945D-14
   1   7   3   1  0.46775182462071D+01 -0.24130208510794D-18
   2   7   3   1 -0.46775182446025D+01  0.11860994451954D-19
   3   7   3   1 -0.24552210990377D+02  0.57095571974105D-14
   1   9   3   1  0.00000000000000D+00  0.00000000000000D+00
   2   9   3   1  0.00000000000000D+00  0.00000000000000D+00
   1   1   1   2 -0.18183216159376D+01  0.82759287602090D-19
   2   1   1   2 -0.90916080792049D+00  0.26485762969698D-18
   3   1   1   2  0.93550364910190D+01 -0.13472782006501D-18
   1   2   1   2  0.32021055124607D+02  0.00000000000000D+00
   2   2   1   2  0.16010527562004D+02  0.00000000000000D+00
   3   2   1   2 -0.29474423305470D+02  0.00000000000000D+00
   1   3   1   2 -0.69450113060182D+02  0.18420216813000D-18
   2   3   1   2 -0.34725056529314D+02  0.69724760760463D-19
   3   3   1   2 -0.39054309597992D+01 -0.78573487601274D-18
   1   4   1   2 -0.24925278150769D+01 -0.91532165979947D-19
   2   4   1   2  0.32881421578135D+02  0.00000000000000D+00
   3   4   1   2  0.12013770517667D+01  0.00000000000000D+00
   1   5   1   2 -0.57401019576652D+01 -0.52206185468361D-19
   2   5   1   2 -0.49165340037206D+01 -0.35787154545667D-19
   3   5   1   2  0.20021986092266D+01 -0.66216070830518D-19
   1   6   1   2 -0.57401019576656D+01 -0.37286921685504D-19
   2   6   1   2 -0.82356795387457D+00 -0.70097609482859D-19
   3   6   1   2  0.20021986092266D+01  0.94047425474758D-19
   1   7   1   2 -0.24925278131292D+01  0.00000000000000D+00
   2   7   1   2 -0.35373949392834D+02  0.37757653249437D-19
   3   7   1   2  0.12013770517667D+01 -0.27470396922482D-18
   2   9   1   2  0.00000000000000D+00  0.00000000000000D+00
   1   1   2   2 -0.90916080792049D+00  0.26485762969698D-18
   2   1   2   2  0.51112111728952D-01 -0.87354919872623D-19
   3   1   2   2  0.46775182452038D+01 -0.13150568352271D-18
   1   2   2   2  0.16010527562004D+02  0.00000000000000D+00
   2   2   2   2  0.37113338932563D+02  0.00000000000000D+00
   3   2   2   2 -0.14737211652429D+02  0.00000000000000D+00
   1   3   2   2 -0.34725056529314D+02  0.69724760760463D-19
   2   3   2   2 -0.10826068340316D+01  0.36869672145571D-19
   3   3   2   2 -0.19527154798996D+01  0.59592628172923D-18
   1   4   2   2  0.33412142578554D+02  0.00000000000000D+00
   2   4   2   2 -0.24758600534037D+01  0.32974089581258D-19
   3   4   2   2  0.32098651915077D+01  0.56808004742940D-19
   1   5   2   2 -0.84294634163576D+00 -0.35787154545667D-19
   2   5   2   2 -0.57308308231075D+01 -0.17367927427753D-19
   3   5   2   2  0.20705122529150D+01  0.12987117521874D-19
   1   6   2   2 -0.48971556159594D+01 -0.70097609482859D-19
   2   6   2   2 -0.57114524353463D+01  0.18213854690295D-19
   3   6   2   2 -0.68313643688428D-01 -0.73131257544684D-19
   1   7   2   2 -0.35904670393254D+02  0.37757653249437D-19
   2   7   2   2 -0.71261952025973D+02  0.32840040084983D-18
   3   7   2   2 -0.20084881397410D+01 -0.10472753735833D-17
   1   1   3   2  0.19641257184363D+02 -0.13472782006501D-18
   2   1   3   2  0.98206285918757D+01 -0.13150568352271D-18
   3   1   3   2 -0.24552210985236D+02  0.37781749876044D-14
   1   2   3   2 -0.33378935789266D+02  0.00000000000000D+00
   2   2   3   2 -0.16689467894327D+02  0.00000000000000D+00
   3   2   3   2 -0.88278760012734D+03  0.00000000000000D+00
   1   3   3   2  0.32933203410241D+01 -0.78573487601274D-18
   2   3   3   2  0.16466601705120D+01  0.59592628172923D-18
   3   3   3   2  0.69127757948744D+03  0.29540977011021D-19
   1   4   3   2  0.25625876185864D+01  0.00000000000000D+00
   2   4   3   2  0.66730479391357D+00  0.56808004742940D-19
   3   4   3   2  0.66851239133665D+03  0.16985672202479D-19
   1   5   3   2 -0.21073618751996D+01 -0.66216070830518D-19
   2   5   3   2 -0.20433953364949D+01  0.12987117521874D-19
   3   5   3   2  0.22793326788395D+03  0.14440929700563D-19
   1   6   3   2 -0.21073618751996D+01  0.94047425474758D-19
   2   6   3   2 -0.63966538704707D-01 -0.73131257544684D-19
   3   6   3   2  0.22793326788394D+03  0.12432479791547D-18
   1   7   3   2  0.25625876185864D+01 -0.27470396922482D-18
   2   7   3   2  0.18952828246728D+01 -0.10472753735833D-17
   3   7   3   2  0.66851239135785D+03 -0.92986328223084D-19
   2   9   3   2  0.00000000000000D+00  0.00000000000000D+00
   1   1   1   3 -0.18183216159376D+01  0.12212964701518D-18
   2   1   1   3 -0.90916080792049D+00  0.46829547041276D-19
   3   1   1   3 -0.93550364910190D+01  0.52275098314964D-19
   1   2   1   3 -0.69450113060182D+02 -0.18420216813000D-18
   2   2   1   3 -0.34725056529314D+02 -0.69724760760463D-19
   3   2   1   3  0.39054309597992D+01  0.78573487601274D-18
   1   3   1   3  0.32021055124607D+02  0.00000000000000D+00
   2   3   1   3  0.16010527562004D+02  0.00000000000000D+00
   3   3   1   3  0.29474423305470D+02  0.00000000000000D+00
   1   4   1   3 -0.57401019576653D+01 -0.29142072516977D-19
   2   4   1   3 -0.49165340037206D+01 -0.45561103439671D-19
   3   4   1   3 -0.20021986092266D+01  0.48360610200587D-19
   1   5   1   3 -0.24925278150769D+01 -0.41705933057593D-19
   2   5   1   3  0.32881421578135D+02  0.00000000000000D+00
   3   5   1   3 -0.12013770517667D+01 -0.23676149632604D-18
   1   6   1   3 -0.24925278131292D+01  0.39886279473588D-19
   2   6   1   3 -0.35373949392835D+02  0.00000000000000D+00
   3   6   1   3 -0.12013770517667D+01  0.15310358370479D-19
   1   7   1   3 -0.57401019576656D+01 -0.14261514329461D-19
   2   7   1   3 -0.82356795387456D+00  0.80485447585816D-19
   3   7   1   3 -0.20021986092266D+01 -0.84622539738675D-19
   2   9   1   3  0.00000000000000D+00  0.00000000000000D+00
   1   1   2   3 -0.90916080792049D+00  0.46829547041276D-19
   2   1   2   3  0.51112111728942D-01 -0.26642417546769D-18
   3   1   2   3 -0.46775182452038D+01 -0.27787745966306D-18
   1   2   2   3 -0.34725056529314D+02 -0.69724760760463D-19
   2   2   2   3 -0.10826068340316D+01 -0.36869672145571D-19
   3   2   2   3  0.19527154798996D+01 -0.59592628172923D-18
   1   3   2   3  0.16010527562004D+02  0.00000000000000D+00
   2   3   2   3  0.37113338932563D+02  0.00000000000000D+00
   3   3   2   3  0.14737211652429D+02  0.00000000000000D+00
   1   4   2   3 -0.84294634163576D+00 -0.45561103439671D-19
   2   4   2   3 -0.57308308231075D+01  0.00000000000000D+00
   3   4   2   3 -0.20705122529150D+01  0.82835323290869D-19
   1   5   2   3  0.33412142578554D+02  0.00000000000000D+00
   2   5   2   3 -0.24758600534037D+01 -0.10072197753573D-18
   3   5   2   3 -0.32098651915077D+01  0.20515464895986D-19
   1   6   2   3 -0.35904670393254D+02  0.00000000000000D+00
   2   6   2   3 -0.71261952025973D+02  0.67176916795906D-19
   3   6   2   3  0.20084881397410D+01  0.10034242423043D-17
   1   7   2   3 -0.48971556159594D+01  0.80485447585816D-19
   2   7   2   3 -0.57114524353463D+01  0.57744741700105D-19
   3   7   2   3  0.68313643688427D-01  0.80729413279254D-19
   1   1   3   3 -0.19641257184363D+02  0.52275098314964D-19
   2   1   3   3 -0.98206285918757D+01 -0.27787745966306D-18
   3   1   3   3 -0.24552210985235D+02  0.10895290985213D-14
   1   2   3   3 -0.32933203410241D+01  0.78573487601274D-18
   2   2   3   3 -0.16466601705120D+01 -0.59592628172923D-18
   3   2   3   3  0.69127757948744D+03 -0.29540977011021D-19
   1   3   3   3  0.33378935789266D+02  0.00000000000000D+00
   2   3   3   3  0.16689467894327D+02  0.00000000000000D+00
   3   3   3   3 -0.88278760012733D+03  0.00000000000000D+00
   1   4   3   3  0.21073618751996D+01  0.48360610200587D-19
   2   4   3   3  0.20433953364949D+01  0.82835323290869D-19
   3   4   3   3  0.22793326788395D+03  0.63298962424730D-19
   1   5   3   3 -0.25625876185864D+01 -0.23676149632604D-18
   2   5   3   3 -0.66730479391357D+00  0.20515464895986D-19
   3   5   3   3  0.66851239133665D+03  0.00000000000000D+00
   1   6   3   3 -0.25625876185864D+01  0.15310358370479D-19
   2   6   3   3 -0.18952828246728D+01  0.10034242423043D-17
   3   6   3   3  0.66851239135785D+03 -0.57554349209975D-19
   1   7   3   3  0.21073618751996D+01 -0.84622539738675D-19
   2   7   3   3  0.63966538704707D-01  0.80729413279254D-19
   3   7   3   3  0.22793326788394D+03  0.38306826516738D-19
   2   9   3   3  0.00000000000000D+00  0.00000000000000D+00
   1   1   1   4  0.51112112065331D-01  0.82435732100651D-19
   2   1   1   4 -0.90916080793994D+00 -0.66010443655248D-19
   3   1   1   4  0.46775182458369D+01  0.36271651161777D-18
   1   2   1   4 -0.24758600574935D+01  0.91532165979947D-19
   2   2   1   4  0.33412142578554D+02  0.00000000000000D+00
   3   2   1   4  0.32098651915077D+01  0.00000000000000D+00
   1   3   1   4 -0.57308308232914D+01  0.29142072516977D-19
   2   3   1   4 -0.84294634163576D+00  0.45561103439671D-19
   3   3   1   4  0.20705122529150D+01 -0.48360610200587D-19
   1   4   1   4  0.37113338933554D+02  0.00000000000000D+00
   2   4   1   4  0.16010527562017D+02  0.00000000000000D+00
   3   4   1   4 -0.14737211653062D+02  0.00000000000000D+00
   1   5   1   4 -0.10826068330128D+01  0.19175863383448D-19
   2   5   1   4 -0.34725056532407D+02  0.00000000000000D+00
   3   5   1   4 -0.19527154798996D+01 -0.36902230864362D-18
   1   6   1   4 -0.71261952023863D+02 -0.30183573318950D-18
   2   6   1   4 -0.35904670390153D+02 -0.61720562400130D-19
   3   6   1   4 -0.20084881397410D+01 -0.62561561679855D-18
   1   7   1   4 -0.57114524355302D+01 -0.48269446101157D-19
   2   7   1   4 -0.48971556159594D+01  0.00000000000000D+00
   3   7   1   4 -0.68313643688427D-01  0.55099487982189D-19
   1   1   2   4 -0.90916080793994D+00 -0.66010443655248D-19
   2   1   2   4 -0.18183216157230D+01  0.33479618539177D-18
   3   1   2   4  0.93550364906806D+01  0.10564757655676D-18
   1   2   2   4  0.32881421578135D+02  0.00000000000000D+00
   2   2   2   4 -0.24925278109870D+01 -0.32974089581258D-19
   3   2   2   4  0.12013770517667D+01 -0.56808004742940D-19
   1   3   2   4 -0.49165340037206D+01  0.45561103439671D-19
   2   3   2   4 -0.57401019574813D+01  0.00000000000000D+00
   3   3   2   4  0.20021986092266D+01 -0.82835323290869D-19
   1   4   2   4  0.16010527562017D+02  0.00000000000000D+00
   2   4   2   4  0.32021055123062D+02  0.00000000000000D+00
   3   4   2   4 -0.29474423305131D+02  0.00000000000000D+00
   1   5   2   4 -0.34725056532407D+02  0.00000000000000D+00
   2   5   2   4 -0.69450113062289D+02 -0.36788356108280D-19
   3   5   2   4 -0.39054309597992D+01 -0.10802102079797D-17
   1   6   2   4 -0.35373949389734D+02 -0.61720562400130D-19
   2   6   2   4 -0.24925278141509D+01 -0.44712849048135D-19
   3   6   2   4  0.12013770517667D+01  0.66508399357265D-19
   1   7   2   4 -0.82356795387452D+00  0.00000000000000D+00
   2   7   2   4 -0.57401019574808D+01  0.76699159398292D-19
   3   7   2   4  0.20021986092266D+01  0.65465206516395D-19
   1   9   2   4  0.00000000000000D+00  0.00000000000000D+00
   1   1   3   4  0.98206285925088D+01  0.36271651161777D-18
   2   1   3   4  0.19641257184024D+02  0.10564757655676D-18
   3   1   3   4 -0.24552210993542D+02  0.60478117844765D-14
   1   2   3   4  0.66730479391357D+00  0.00000000000000D+00
   2   2   3   4  0.25625876185864D+01 -0.56808004742940D-19
   3   2   3   4  0.66851239133665D+03 -0.16985672202479D-19
   1   3   3   4 -0.20433953364949D+01 -0.48360610200587D-19
   2   3   3   4 -0.21073618751996D+01 -0.82835323290869D-19
   3   3   3   4  0.22793326788395D+03 -0.63298962424730D-19
   1   4   3   4 -0.16689467894960D+02  0.00000000000000D+00
   2   4   3   4 -0.33378935788928D+02  0.00000000000000D+00
   3   4   3   4 -0.88278760011890D+03  0.00000000000000D+00
   1   5   3   4  0.16466601705120D+01 -0.36902230864362D-18
   2   5   3   4  0.32933203410241D+01 -0.10802102079797D-17
   3   5   3   4  0.69127757954293D+03 -0.93667761570996D-19
   1   6   3   4  0.18952828246728D+01 -0.62561561679855D-18
   2   6   3   4  0.25625876185864D+01  0.66508399357265D-19
   3   6   3   4  0.66851239130221D+03 -0.18397133238492D-18
   1   7   3   4 -0.63966538704707D-01  0.55099487982189D-19
   2   7   3   4 -0.21073618751996D+01  0.65465206516395D-19
   3   7   3   4  0.22793326788396D+03 -0.85506945863347D-19
   1   9   3   4  0.00000000000000D+00  0.00000000000000D+00
   1   1   1   5  0.51112112065330D-01  0.27576930348009D-18
   2   1   1   5 -0.90916080793994D+00  0.45194355496715D-19
   3   1   1   5 -0.46775182458369D+01 -0.89354496659195D-19
   1   2   1   5 -0.57308308232914D+01  0.52206185468361D-19
   2   2   1   5 -0.84294634163576D+00  0.35787154545667D-19
   3   2   1   5 -0.20705122529150D+01  0.66216070830518D-19
   1   3   1   5 -0.24758600574935D+01  0.41705933057593D-19
   2   3   1   5  0.33412142578554D+02  0.00000000000000D+00
   3   3   1   5 -0.32098651915077D+01  0.23676149632604D-18
   1   4   1   5 -0.10826068330128D+01 -0.19175863383448D-19
   2   4   1   5 -0.34725056532407D+02  0.00000000000000D+00
   3   4   1   5  0.19527154798996D+01  0.36902230864362D-18
   1   5   1   5  0.37113338933555D+02  0.00000000000000D+00
   2   5   1   5  0.16010527562017D+02  0.00000000000000D+00
   3   5   1   5  0.14737211653062D+02  0.00000000000000D+00
   1   6   1   5 -0.57114524355302D+01  0.31364002286452D-19
   2   6   1   5 -0.48971556159594D+01  0.42942770316188D-19
   3   6   1   5  0.68313643688428D-01 -0.36448996263933D-19
   1   7   1   5 -0.71261952023863D+02  0.39083336080715D-19
   2   7   1   5 -0.35904670390153D+02  0.72108400503086D-19
   3   7   1   5  0.20084881397410D+01 -0.13936731969128D-17
   1   1   2   5 -0.90916080793994D+00  0.45194355496715D-19
   2   1   2   5 -0.18183216157230D+01 -0.70270422567576D-19
   3   1   2   5 -0.93550364906806D+01 -0.16388468380215D-18
   1   2   2   5 -0.49165340037206D+01  0.35787154545667D-19
   2   2   2   5 -0.57401019574814D+01  0.17367927427753D-19
   3   2   2   5 -0.20021986092266D+01 -0.12987117521874D-19
   1   3   2   5  0.32881421578135D+02  0.00000000000000D+00
   2   3   2   5 -0.24925278109871D+01  0.10072197753573D-18
   3   3   2   5 -0.12013770517667D+01 -0.20515464895986D-19
   1   4   2   5 -0.34725056532407D+02  0.00000000000000D+00
   2   4   2   5 -0.69450113062289D+02  0.36788356108280D-19
   3   4   2   5  0.39054309597992D+01  0.10802102079797D-17
   1   5   2   5  0.16010527562017D+02  0.00000000000000D+00
   2   5   2   5  0.32021055123062D+02  0.00000000000000D+00
   3   5   2   5  0.29474423305131D+02  0.00000000000000D+00
   1   6   2   5 -0.82356795387453D+00  0.42942770316188D-19
   2   6   2   5 -0.57401019574808D+01  0.48391322442489D-19
   3   6   2   5 -0.20021986092266D+01 -0.59803384318832D-19
   1   7   2   5 -0.35373949389734D+02  0.72108400503086D-19
   2   7   2   5 -0.24925278141509D+01  0.95203352654233D-19
   3   7   2   5 -0.12013770517667D+01  0.93747322333121D-19
   1   9   2   5  0.00000000000000D+00  0.00000000000000D+00
   1   1   3   5 -0.98206285925088D+01 -0.89354496659195D-19
   2   1   3   5 -0.19641257184024D+02 -0.16388468380215D-18
   3   1   3   5 -0.24552210993542D+02  0.65905350426000D-14
   1   2   3   5  0.20433953364949D+01  0.66216070830518D-19
   2   2   3   5  0.21073618751996D+01 -0.12987117521874D-19
   3   2   3   5  0.22793326788395D+03 -0.14440929700563D-19
   1   3   3   5 -0.66730479391357D+00  0.23676149632604D-18
   2   3   3   5 -0.25625876185864D+01 -0.20515464895986D-19
   3   3   3   5  0.66851239133665D+03  0.00000000000000D+00
   1   4   3   5 -0.16466601705120D+01  0.36902230864362D-18
   2   4   3   5 -0.32933203410241D+01  0.10802102079797D-17
   3   4   3   5  0.69127757954293D+03  0.93667761570996D-19
   1   5   3   5  0.16689467894960D+02  0.00000000000000D+00
   2   5   3   5  0.33378935788928D+02  0.00000000000000D+00
   3   5   3   5 -0.88278760011890D+03  0.00000000000000D+00
   1   6   3   5  0.63966538704707D-01 -0.36448996263933D-19
   2   6   3   5  0.21073618751996D+01 -0.59803384318832D-19
   3   6   3   5  0.22793326788396D+03 -0.64140350305681D-19
   1   7   3   5 -0.18952828246728D+01 -0.13936731969128D-17
   2   7   3   5 -0.25625876185864D+01  0.93747322333121D-19
   3   7   3   5  0.66851239130221D+03 -0.12056933376960D-18
   1   9   3   5  0.00000000000000D+00  0.00000000000000D+00
   1   1   1   6  0.51112111840557D-01  0.14014803458807D-18
   2   1   1   6  0.96027291986968D+00  0.13861065029114D-18
   3   1   1   6 -0.46775182462071D+01 -0.93515599030131D-19
   1   2   1   6 -0.57308308232917D+01  0.37286921685504D-19
   2   2   1   6 -0.48878844815856D+01  0.70097609482859D-19
   3   2   1   6 -0.20705122529150D+01 -0.94047425474758D-19
   1   3   1   6 -0.24758600555459D+01 -0.39886279473588D-19
   2   3   1   6 -0.35888002635670D+02  0.00000000000000D+00
   3   3   1   6 -0.32098651915077D+01 -0.15310358370479D-19
   1   4   1   6 -0.71261952023863D+02  0.30183573318950D-18
   2   4   1   6 -0.35357281632151D+02  0.61720562400130D-19
   3   4   1   6  0.20084881397410D+01  0.62561561679855D-18
   1   5   1   6 -0.57114524355302D+01 -0.31364002286452D-19
   2   5   1   6 -0.81429681950068D+00 -0.42942770316188D-19
   3   5   1   6  0.68313643688427D-01  0.36448996263933D-19
   1   6   1   6  0.37113338933775D+02  0.00000000000000D+00
   2   6   1   6  0.21102811371165D+02  0.00000000000000D+00
   3   6   1   6  0.14737211653432D+02  0.00000000000000D+00
   1   7   1   6 -0.10826068349560D+01  0.41679390834973D-19
   2   7   1   6  0.33642449697828D+02  0.00000000000000D+00
   3   7   1   6  0.19527154798996D+01  0.38432695730827D-18
   1   1   2   6  0.96027291986968D+00  0.13861065029114D-18
   2   1   2   6  0.51112112094080D-01 -0.61012546297264D-19
   3   1   2   6  0.46775182446025D+01  0.60629448559089D-19
   1   2   2   6 -0.81429681950072D+00  0.70097609482859D-19
   2   2   2   6 -0.57114524353463D+01 -0.18213854690295D-19
   3   2   2   6 -0.68313643688428D-01  0.73131257544684D-19
   1   3   2   6 -0.35357281635251D+02  0.00000000000000D+00
   2   3   2   6 -0.71261952025973D+02 -0.67176916795906D-19
   3   3   2   6 -0.20084881397410D+01 -0.10034242423043D-17
   1   4   2   6 -0.35888002632570D+02  0.61720562400130D-19
   2   4   2   6 -0.24758600565676D+01  0.44712849048135D-19
   3   4   2   6  0.32098651915077D+01 -0.66508399357265D-19
   1   5   2   6 -0.48878844815855D+01 -0.42942770316188D-19
   2   5   2   6 -0.57308308231070D+01 -0.48391322442489D-19
   3   5   2   6  0.20705122529150D+01  0.59803384318832D-19
   1   6   2   6  0.21102811371165D+02  0.00000000000000D+00
   2   6   2   6  0.37113338932204D+02  0.00000000000000D+00
   3   6   2   6 -0.14737211651828D+02  0.00000000000000D+00
   1   7   2   6  0.33642449697828D+02  0.00000000000000D+00
   2   7   2   6 -0.10826068308750D+01  0.24013813636230D-19
   3   7   2   6 -0.19527154798996D+01  0.15142515299713D-18
   1   1   3   6 -0.98206285928789D+01 -0.93515599030131D-19
   2   1   3   6  0.98206285912743D+01  0.60629448559089D-19
   3   1   3   6 -0.24552210990377D+02 -0.50284175765945D-14
   1   2   3   6  0.20433953364949D+01 -0.94047425474758D-19
   2   2   3   6 -0.63966538704707D-01  0.73131257544684D-19
   3   2   3   6  0.22793326788394D+03 -0.12432479791547D-18
   1   3   3   6 -0.66730479391357D+00 -0.15310358370479D-19
   2   3   3   6  0.18952828246728D+01 -0.10034242423043D-17
   3   3   3   6  0.66851239135785D+03  0.57554349209975D-19
   1   4   3   6 -0.18952828246728D+01  0.62561561679855D-18
   2   4   3   6  0.66730479391357D+00 -0.66508399357265D-19
   3   4   3   6  0.66851239130221D+03  0.18397133238492D-18
   1   5   3   6  0.63966538704707D-01  0.36448996263933D-19
   2   5   3   6 -0.20433953364949D+01  0.59803384318832D-19
   3   5   3   6  0.22793326788396D+03  0.64140350305681D-19
   1   6   3   6  0.16689467895331D+02  0.00000000000000D+00
   2   6   3   6 -0.16689467893726D+02  0.00000000000000D+00
   3   6   3   6 -0.88278760012212D+03  0.00000000000000D+00
   1   7   3   6 -0.16466601705120D+01  0.38432695730827D-18
   2   7   3   6  0.16466601705120D+01  0.15142515299713D-18
   3   7   3   6  0.69127757952179D+03  0.00000000000000D+00
   1   1   1   7  0.51112111840558D-01  0.14326253185522D-18
   2   1   1   7  0.96027291986968D+00  0.65429145270970D-19
   3   1   1   7  0.46775182462071D+01  0.24130208510794D-18
   1   2   1   7 -0.24758600555458D+01  0.00000000000000D+00
   2   2   1   7 -0.35888002635670D+02 -0.37757653249437D-19
   3   2   1   7  0.32098651915077D+01  0.27470396922482D-18
   1   3   1   7 -0.57308308232917D+01  0.14261514329461D-19
   2   3   1   7 -0.48878844815856D+01 -0.80485447585816D-19
   3   3   1   7  0.20705122529150D+01  0.84622539738675D-19
   1   4   1   7 -0.57114524355302D+01  0.48269446101157D-19
   2   4   1   7 -0.81429681950068D+00  0.00000000000000D+00
   3   4   1   7 -0.68313643688428D-01 -0.55099487982189D-19
   1   5   1   7 -0.71261952023863D+02 -0.39083336080715D-19
   2   5   1   7 -0.35357281632151D+02 -0.72108400503086D-19
   3   5   1   7 -0.20084881397410D+01  0.13936731969128D-17
   1   6   1   7 -0.10826068349560D+01 -0.41679390834973D-19
   2   6   1   7  0.33642449697828D+02  0.00000000000000D+00
   3   6   1   7 -0.19527154798996D+01 -0.38432695730827D-18
   1   7   1   7  0.37113338933775D+02  0.00000000000000D+00
   2   7   1   7  0.21102811371165D+02  0.00000000000000D+00
   3   7   1   7 -0.14737211653432D+02  0.00000000000000D+00
   1   1   2   7  0.96027291986968D+00  0.65429145270970D-19
   2   1   2   7  0.51112112094077D-01 -0.12154990040434D-18
   3   1   2   7 -0.46775182446025D+01 -0.11860994451954D-19
   1   2   2   7 -0.35357281635251D+02 -0.37757653249437D-19
   2   2   2   7 -0.71261952025973D+02 -0.32840040084983D-18
   3   2   2   7  0.20084881397410D+01  0.10472753735833D-17
   1   3   2   7 -0.81429681950071D+00 -0.80485447585816D-19
   2   3   2   7 -0.57114524353463D+01 -0.57744741700105D-19
   3   3   2   7  0.68313643688428D-01 -0.80729413279254D-19
   1   4   2   7 -0.48878844815855D+01  0.00000000000000D+00
   2   4   2   7 -0.57308308231070D+01 -0.76699159398292D-19
   3   4   2   7 -0.20705122529150D+01 -0.65465206516395D-19
   1   5   2   7 -0.35888002632570D+02 -0.72108400503086D-19
   2   5   2   7 -0.24758600565676D+01 -0.95203352654233D-19
   3   5   2   7 -0.32098651915077D+01 -0.93747322333121D-19
   1   6   2   7  0.33642449697828D+02  0.00000000000000D+00
   2   6   2   7 -0.10826068308750D+01 -0.24013813636230D-19
   3   6   2   7  0.19527154798996D+01 -0.15142515299713D-18
   1   7   2   7  0.21102811371165D+02  0.00000000000000D+00
   2   7   2   7  0.37113338932205D+02  0.00000000000000D+00
   3   7   2   7  0.14737211651828D+02  0.00000000000000D+00
   1   1   3   7  0.98206285928789D+01  0.24130208510794D-18
   2   1   3   7 -0.98206285912743D+01 -0.11860994451954D-19
   3   1   3   7 -0.24552210990377D+02 -0.57095571974105D-14
   1   2   3   7  0.66730479391357D+00  0.27470396922482D-18
   2   2   3   7 -0.18952828246728D+01  0.10472753735833D-17
   3   2   3   7  0.66851239135785D+03  0.92986328223084D-19
   1   3   3   7 -0.20433953364949D+01  0.84622539738675D-19
   2   3   3   7  0.63966538704707D-01 -0.80729413279254D-19
   3   3   3   7  0.22793326788394D+03 -0.38306826516738D-19
   1   4   3   7 -0.63966538704707D-01 -0.55099487982189D-19
   2   4   3   7  0.20433953364949D+01 -0.65465206516395D-19
   3   4   3   7  0.22793326788396D+03  0.85506945863347D-19
   1   5   3   7  0.18952828246728D+01  0.13936731969128D-17
   2   5   3   7 -0.66730479391357D+00 -0.93747322333121D-19
   3   5   3   7  0.66851239130221D+03  0.12056933376960D-18
   1   6   3   7  0.16466601705120D+01 -0.38432695730827D-18
   2   6   3   7 -0.16466601705120D+01 -0.15142515299713D-18
   3   6   3   7  0.69127757952179D+03  0.00000000000000D+00
   1   7   3   7 -0.16689467895331D+02  0.00000000000000D+00
   2   7   3   7  0.16689467893726D+02  0.00000000000000D+00
   3   7   3   7 -0.88278760012212D+03  0.00000000000000D+00
   2   1   1   9  0.00000000000000D+00  0.00000000000000D+00
   3   1   1   9  0.00000000000000D+00  0.00000000000000D+00
   2   4   1   9  0.00000000000000D+00  0.00000000000000D+00
   3   4   1   9  0.00000000000000D+00  0.00000000000000D+00
   2   5   1   9  0.00000000000000D+00  0.00000000000000D+00
   3   5   1   9  0.00000000000000D+00  0.00000000000000D+00
   3   9   1   9  0.00000000000000D+00  0.00000000000000D+00
   1   1   2   9  0.00000000000000D+00  0.00000000000000D+00
   3   1   2   9  0.00000000000000D+00  0.00000000000000D+00
   1   2   2   9  0.00000000000000D+00  0.00000000000000D+00
   3   2   2   9  0.00000000000000D+00  0.00000000000000D+00
   1   3   2   9  0.00000000000000D+00  0.00000000000000D+00
   3   3   2   9  0.00000000000000D+00  0.00000000000000D+00
   3   9   2   9  0.00000000000000D+00  0.00000000000000D+00
   1   1   3   9  0.00000000000000D+00  0.00000000000000D+00
   2   1   3   9  0.00000000000000D+00  0.00000000000000D+00
   1   9   3   9  0.00000000000000D+00  0.00000000000000D+00
   2   9   3   9  0.00000000000000D+00  0.00000000000000D+00
  
 2nd derivatives (non-stat.)  - # elements :     434
 qpt  3.33333333E-01  0.00000000E+00  0.00000000E+00   1.0
   1   2   1   1 -0.11447388209882D+01 -0.69074638525013D+00
   2   2   1   1 -0.56002381460876D+00 -0.25573437465533D+00
   3   2   1   1  0.25170302395296D+02 -0.28516605835506D+01
   1   3   1   1  0.89138522399396D-01 -0.11989504523757D+01
   2   3   1   1  0.30706719860562D+00 -0.60719487696194D+00
   3   3   1   1  0.16863980642681D+02 -0.17735550420079D+02
   1   4   1   1  0.13662761600309D+01  0.36718440787274D+00
   2   4   1   1 -0.56049941817106D+00  0.28252263951364D+00
   3   4   1   1  0.87949582226210D+01 -0.16669744476334D+01
   1   5   1   1  0.80556156530769D+00 -0.21231883333230D+00
   2   5   1   1 -0.14096923273338D+01 -0.47921544407630D+00
   3   5   1   1 -0.93580867580161D+01 -0.38490982117080D+01
   1   6   1   1 -0.66850134668403D+00  0.97605772289659D-01
   2   6   1   1 -0.40168123074930D+00  0.84389365360122D+00
   3   6   1   1  0.10539867768840D+02 -0.90599665244899D+01
   1   7   1   1  0.63442457632275D+00 -0.34959374556288D+00
   2   7   1   1  0.11543308958963D+01 -0.15750529261323D+00
   3   7   1   1  0.14019770430811D+02 -0.25066008613305D+01
   3   1   2   1 -0.35432437050571D-14  0.00000000000000D+00
   1   2   2   1 -0.62483250137440D+00 -0.49865793234143D+00
   2   2   2   1  0.59430708119229D+00 -0.41323966734364D+00
   3   2   2   1  0.11150531965064D+02 -0.34505972230773D+00
   1   3   2   1  0.35595863827857D+00 -0.45266257104977D+00
   2   3   2   1 -0.94614032161053D-01  0.23669877651919D+00
   3   3   2   1  0.63241128742059D+01 -0.86755838960465D+01
   1   4   2   1 -0.84897773261054D+00  0.10028779709387D+00
   2   4   2   1 -0.19701917453816D+01 -0.19669280458866D+00
   3   4   2   1  0.18153044979802D+02  0.21821237640431D+01
   1   5   2   1 -0.11212140128943D+01 -0.29698060165654D+00
   2   5   2   1 -0.19701917453816D+01 -0.19669280453668D+00
   3   5   2   1 -0.18153044979802D+02 -0.21821237641063D+01
   1   6   2   1 -0.45057267042225D+00  0.68936134768906D+00
   2   6   2   1 -0.94614032193499D-01  0.23669877676238D+00
   3   6   2   1 -0.63241128741980D+01  0.86755838956819D+01
   1   7   2   1  0.12191395826620D+01  0.85418265072881D-01
   2   7   2   1  0.59430708141911D+00 -0.41323966725014D+00
   3   7   2   1 -0.11150531964744D+02  0.34505972248316D+00
   2   1   3   1 -0.35432437050571D-14  0.00000000000000D+00
   1   2   3   1  0.18400343721383D+02 -0.22038298779206D+01
   2   2   3   1  0.11173436191875D+02 -0.47177778731824D-01
   3   2   3   1 -0.56428915554457D+02  0.54706361684013D+01
   1   3   3   1  0.13350531343173D+02 -0.15666053315662D+02
   2   3   3   1  0.60726315197606D+01 -0.89235439003778D+01
   3   3   3   1  0.38815025017908D+02 -0.50091050389052D+02
   1   4   3   1  0.64506372743442D+01  0.12150911233808D+00
   2   4   3   1  0.16697117592523D+02  0.19019300492105D+00
   3   4   3   1 -0.66025038795232D+02  0.26545139981012D+01
   1   5   3   1 -0.10246480319014D+02 -0.68683892614589D-01
   2   5   3   1 -0.16697117592523D+02 -0.19019300498430D+00
   3   5   3   1 -0.66025038795232D+02  0.26545139980071D+01
   1   6   3   1  0.72778998237776D+01 -0.67425094157416D+01
   2   6   3   1 -0.60726315197527D+01  0.89235439000131D+01
   3   6   3   1  0.38815025019608D+02 -0.50091050393006D+02
   1   7   3   1  0.72269075300870D+01 -0.21566520992764D+01
   2   7   3   1 -0.11173436191555D+02  0.47177778907249D-01
   3   7   3   1 -0.56428915558731D+02  0.54706361678973D+01
   1   1   1   2 -0.11447388209882D+01  0.69074638525013D+00
   2   1   1   2 -0.62483250137440D+00  0.49865793234143D+00
   3   1   1   2  0.18400343721383D+02  0.22038298779206D+01
   1   2   1   2  0.32817707362832D+02  0.64579607701427D-05
   2   2   1   2  0.17015993436974D+02  0.25475477025264D+01
   3   2   1   2 -0.24675337172826D+02 -0.39310567393282D+02
   1   3   1   2 -0.67152948954245D+02 -0.29846999882677D+01
   2   3   1   2 -0.34216972521172D+02 -0.22057698729609D+01
   3   3   1   2 -0.73463342888946D+01  0.12714886036052D+00
   1   4   1   2 -0.61435232744857D+00  0.12634144187591D+01
   2   4   1   2  0.35127970389998D+02 -0.98372902119492D+00
   3   4   1   2  0.34433003457130D+01 -0.23976007925553D+01
   1   5   1   2 -0.69993402514766D+00  0.51591912347939D+01
   2   5   1   2 -0.62630002041082D+01  0.12674733792172D+01
   3   5   1   2  0.24149492455257D+01 -0.51564238192567D+01
   1   6   1   2 -0.89977223868400D+00 -0.30462802382642D+01
   2   6   1   2 -0.38436765409633D+01  0.25995015728974D+01
   3   6   1   2  0.22081541015632D+01  0.78933406904443D+00
   1   7   1   2 -0.79814513520414D+00  0.33050375133248D+00
   2   7   1   2 -0.37441652969008D+02  0.33049742945552D+00
   3   7   1   2  0.11798628442380D+01  0.19664116617512D+01
   1   1   2   2 -0.56002381460876D+00  0.25573437465533D+00
   2   1   2   2  0.59430708119229D+00  0.41323966734364D+00
   3   1   2   2  0.11173436191875D+02  0.47177778731824D-01
   1   2   2   2  0.17015994678442D+02 -0.25475350673534D+01
   2   2   2   2  0.33257570548377D+02 -0.10420054032316D-15
   3   2   2   2 -0.36189022226002D+02 -0.20444373010350D+02
   1   3   2   2 -0.33538929797580D+02 -0.76175798342467D+00
   2   3   2   2 -0.15828979432908D+01 -0.29476209280333D+00
   3   3   2   2 -0.27815630506968D+01 -0.16903380267588D+01
   1   4   2   2  0.33706114267454D+02 -0.62582777312847D+00
   2   4   2   2 -0.39951562197957D+00 -0.58867601999889D-01
   3   4   2   2  0.48729614025563D+01 -0.40126702940244D+00
   1   5   2   2 -0.33948160528830D+01  0.26564723866211D+00
   2   5   2   2 -0.88088195964166D+01 -0.79809681615876D-01
   3   5   2   2 -0.98282235410576D+00 -0.48068916826519D+01
   1   6   2   2 -0.63827960991393D+01  0.79539465308132D-02
   2   6   2   2 -0.91048069019361D+01  0.18230079997085D+01
   3   6   2   2  0.47748559690997D+01 -0.48794499118913D+01
   1   7   2   2 -0.36538396353893D+02  0.33051007464441D+00
   2   7   2   2 -0.73980050517857D+02  0.46929258404622D-08
   3   7   2   2 -0.21312156056954D+01  0.73946287257841D+00
   1   1   3   2  0.25170302395296D+02  0.28516605835506D+01
   2   1   3   2  0.11150531965064D+02  0.34505972230773D+00
   3   1   3   2 -0.56428915554457D+02 -0.54706361684013D+01
   1   2   3   2 -0.24675331280724D+02  0.39310569593922D+02
   2   2   3   2 -0.36189017377161D+02  0.20444374534683D+02
   3   2   3   2 -0.10175726272673D+04 -0.83764433151701D-16
   1   3   3   2  0.37200449612762D+01 -0.12239616075593D+01
   2   3   3   2 -0.26027653891875D+01  0.19321648439858D+01
   3   3   3   2  0.52852655694104D+03  0.36619820466323D+02
   1   4   3   2 -0.47142960327215D+01  0.24704431556386D+01
   2   4   3   2 -0.40259311302952D+01  0.65808392627925D+01
   3   4   3   2  0.56470450482077D+03 -0.61601568477507D+02
   1   5   3   2 -0.25123206634209D+01  0.54830894725787D+00
   2   5   3   2  0.76178803879236D+00 -0.33163027105632D+01
   3   5   3   2  0.94742225525148D+02 -0.84740564730856D+02
   1   6   3   2  0.22935669655297D+01  0.67484033700708D+00
   2   6   3   2 -0.23036812486653D+01  0.29341098948167D+01
   3   6   3   2  0.81121797997587D+02  0.51632700981401D+02
   1   7   3   2  0.33110797674381D+01 -0.12269478680651D+01
   2   7   3   2  0.21312113758156D+01  0.73946131078822D+00
   3   7   3   2  0.54959177291262D+03 -0.45175330886608D-05
   1   1   1   3  0.89138522399395D-01  0.11989504523757D+01
   2   1   1   3  0.35595863827857D+00  0.45266257104977D+00
   3   1   1   3  0.13350531343173D+02  0.15666053315662D+02
   1   2   1   3 -0.67152949929944D+02  0.29847052905519D+01
   2   2   1   3 -0.33538924794934D+02  0.76176614227958D+00
   3   2   1   3  0.37200179384288D+01  0.12239780430439D+01
   1   3   1   3  0.37819707980605D+02  0.34810110699239D-06
   2   3   1   3  0.17880037798187D+02  0.16636380948661D+01
   3   3   1   3  0.22182074343943D+02  0.36550100024018D+02
   1   4   1   3 -0.21534370613024D+01  0.20369182877529D+01
   2   4   1   3  0.30163512070047D+01  0.40153096505416D+01
   3   4   1   3 -0.36236411714928D+01 -0.49289223561904D+00
   1   5   1   3 -0.78089656924179D+00  0.16806032016944D+01
   2   5   1   3 -0.16378655710256D+02 -0.27998696500618D+02
   3   5   1   3  0.20109620070094D+01  0.29051682675875D+01
   1   6   1   3 -0.23128504479372D+00 -0.67536670611460D+00
   2   6   1   3 -0.35420265222279D+02 -0.67536631035146D+00
   3   6   1   3 -0.41193426096403D+01 -0.80649222768850D+00
   1   7   1   3  0.22188750448672D+00  0.38307248800794D+01
   2   7   1   3 -0.27220158587642D+01 -0.18150622407166D+01
   3   7   1   3  0.45972213791747D+01  0.22592861298563D+01
   1   1   2   3  0.30706719860562D+00  0.60719487696194D+00
   2   1   2   3 -0.94614032161053D-01 -0.23669877651919D+00
   3   1   2   3  0.60726315197606D+01  0.89235439003778D+01
   1   2   2   3 -0.34216985292197D+02  0.22057697680250D+01
   2   2   2   3 -0.15828978848678D+01  0.29476209267760D+00
   3   2   2   3 -0.26027958030122D+01 -0.19321489640903D+01
   1   3   2   3  0.17880028659875D+02 -0.16636438479488D+01
   2   3   2   3  0.34222660528480D+02  0.68353609886224D-17
   3   3   2   3  0.33014673790779D+02  0.12181457954063D+02
   1   4   2   3  0.32963257846357D+01  0.23224863785296D+01
   2   4   2   3  0.58189061449860D+01  0.66519556332868D+01
   3   4   2   3 -0.34224826472937D+01 -0.19228338091715D+01
   1   5   2   3 -0.15738443777351D+02 -0.28312614580309D+02
   2   5   2   3  0.17192254367627D+00  0.14406954638293D+01
   3   5   2   3  0.15667759904530D+01  0.17343704336259D+01
   1   6   2   3 -0.37423721877285D+02 -0.67537205341531D+00
   2   6   2   3 -0.72843977933518D+02 -0.11430997018039D-06
   3   6   2   3 -0.41864170614940D+01 -0.30896167667269D+01
   1   7   2   3 -0.52611432170712D+01  0.77649356334779D+00
   2   7   2   3 -0.91048068648313D+01 -0.18230078954246D+01
   3   7   2   3  0.23036514968648D+01  0.29341259901121D+01
   1   1   3   3  0.16863980642681D+02  0.17735550420079D+02
   2   1   3   3  0.63241128742059D+01  0.86755838960465D+01
   3   1   3   3  0.38815025017908D+02  0.50091050389052D+02
   1   2   3   3 -0.73463377584191D+01 -0.12714943518141D+00
   2   2   3   3 -0.27815592766798D+01  0.16903360068738D+01
   3   2   3   3  0.52852655259824D+03 -0.36619821956348D+02
   1   3   3   3  0.22182097945192D+02 -0.36550100800122D+02
   2   3   3   3  0.33014706535890D+02 -0.12181467712431D+02
   3   3   3   3 -0.10284292791627D+04 -0.83764457967120D-16
   1   4   3   3 -0.38266256078648D+00 -0.96258044994550D+00
   2   4   3   3 -0.27377394021151D+01  0.17038239400986D+01
   3   4   3   3  0.76751236815868D+01 -0.10556547226438D+03
   1   5   3   3  0.32959124272869D+01  0.18890757209965D+01
   2   5   3   3  0.28859713272553D+01  0.26641290287041D+01
   3   5   3   3 -0.23227702156978D+03 -0.48845314835230D+03
   1   6   3   3  0.67065669669598D-01 -0.22831151869237D+01
   2   6   3   3  0.41863852742581D+01 -0.30896068528560D+01
   3   6   3   3  0.58590779813530D+03  0.48441974437698D-06
   1   7   3   3 -0.25667090229246D+01 -0.56687823604647D+01
   2   7   3   3 -0.47748591013937D+01 -0.48794477456054D+01
   3   7   3   3  0.81121793666071D+02 -0.51632702459227D+02
   1   1   1   4  0.13662761600309D+01 -0.36718440787274D+00
   2   1   1   4 -0.84897773261054D+00 -0.10028779709387D+00
   3   1   1   4  0.64506372743442D+01 -0.12150911233808D+00
   1   2   1   4 -0.61435052897221D+00 -0.12634014445862D+01
   2   2   1   4  0.33706108547269D+02  0.62583694666846D+00
   3   2   1   4 -0.47142839569915D+01 -0.24704335460668D+01
   1   3   1   4 -0.21534373389454D+01 -0.20369062574816D+01
   2   3   1   4  0.32963349693496D+01 -0.23224808651867D+01
   3   3   1   4 -0.38265918354322D+00  0.96259629609501D+00
   1   4   1   4  0.34932030641519D+02  0.31406858306314D-05
   2   4   1   4  0.15280205711371D+02 -0.59637661501960D-01
   3   4   1   4 -0.21273021386015D+02 -0.24453387110474D+02
   1   5   1   4 -0.69243106339112D+00  0.27069388710536D+00
   2   5   1   4 -0.36331707868700D+02  0.27069083623054D+00
   3   5   1   4 -0.10685847603697D+01 -0.35310816759977D+01
   1   6   1   4  0.31508115898103D+02 -0.59432603264129D+02
   2   6   1   4  0.15910357180667D+02 -0.29753315656419D+02
   3   6   1   4  0.40994453156598D+00  0.77506914477374D+00
   1   7   1   4  0.14907008004462D+00 -0.35462571286024D+01
   2   7   1   4 -0.54139979275532D+01  0.34544783041956D+00
   3   7   1   4 -0.32740966982861D+01 -0.38646017019580D+01
   1   1   2   4 -0.56049941817106D+00 -0.28252263951364D+00
   2   1   2   4 -0.19701917453816D+01  0.19669280458866D+00
   3   1   2   4  0.16697117592523D+02 -0.19019300492105D+00
   1   2   2   4  0.35127978147680D+02  0.98374104592784D+00
   2   2   2   4 -0.39951551674490D+00  0.58867569413101D-01
   3   2   2   4 -0.40259153699512D+01 -0.65808220511870D+01
   1   3   2   4  0.30163489901227D+01 -0.40152943609407D+01
   2   3   2   4  0.58189062934119D+01 -0.66519559576558D+01
   3   3   2   4 -0.27377365572637D+01 -0.17038000588045D+01
   1   4   2   4  0.15280220470634D+02  0.59641277609988D-01
   2   4   2   4  0.29307935513642D+02 -0.33317044030283D-15
   3   4   2   4 -0.34646971891464D+02 -0.58199002421203D+02
   1   5   2   4 -0.36017872692505D+02  0.27069428891061D+00
   2   5   2   4 -0.72349595464744D+02 -0.11282395015261D-07
   3   5   2   4 -0.17249258187943D+01 -0.37548834140290D+01
   1   6   2   4  0.16550575818996D+02 -0.29439376507661D+02
   2   6   2   4  0.17192243880559D+00 -0.14406952773585D+01
   3   6   2   4 -0.28859688369451D+01  0.26641530375366D+01
   1   7   2   4 -0.25458117422506D+01  0.13472950579077D+01
   2   7   2   4 -0.88088197639229D+01  0.79809797158627D-01
   3   7   2   4 -0.76177277218102D+00 -0.33162852515301D+01
   1   1   3   4  0.87949582226210D+01  0.16669744476334D+01
   2   1   3   4  0.18153044979802D+02 -0.21821237640431D+01
   3   1   3   4 -0.66025038795232D+02 -0.26545139981012D+01
   1   2   3   4  0.34433102780920D+01  0.23975973580098D+01
   2   2   3   4  0.48729662800027D+01  0.40126976644308D+00
   3   2   3   4  0.56470450794422D+03  0.61601565045741D+02
   1   3   3   4 -0.36236268087541D+01  0.49291223675582D+00
   2   3   3   4 -0.34224676885753D+01  0.19228674822109D+01
   3   3   3   4  0.76751225127474D+01  0.10556547560310D+03
   1   4   3   4 -0.21273037479836D+02  0.24453385639386D+02
   2   4   3   4 -0.34646992532337D+02  0.58199004476373D+02
   3   4   3   4 -0.11752694000230D+04 -0.83764457967120D-16
   1   5   3   4  0.65634551099677D+00 -0.22380537763945D+00
   2   5   3   4  0.17249460568284D+01 -0.37548854181401D+01
   3   5   3   4  0.59056930607382D+03  0.35739877261105D-06
   1   6   3   4  0.44418543403251D+00 -0.11708114659690D+01
   2   6   3   4 -0.15667908175117D+01  0.17343367664789D+01
   3   6   3   4 -0.23227702275564D+03  0.48845315166488D+03
   1   7   3   4  0.33977771378987D+01  0.34952558219604D+00
   2   7   3   4  0.98281830737554D+00 -0.48068946164678D+01
   3   7   3   4  0.94742228648747D+02  0.84740561282043D+02
   1   1   1   5  0.80556156530769D+00  0.21231883333230D+00
   2   1   1   5 -0.11212140128943D+01  0.29698060165654D+00
   3   1   1   5 -0.10246480319014D+02  0.68683892614589D-01
   1   2   1   5 -0.69994001359440D+00 -0.51591902200950D+01
   2   2   1   5 -0.33948218358890D+01 -0.26563803358530D+00
   3   2   1   5 -0.25123239261051D+01 -0.54831645042792D+00
   1   3   1   5 -0.78089466290939D+00 -0.16806063769742D+01
   2   3   1   5 -0.15738434742614D+02  0.28312620380973D+02
   3   3   1   5  0.32959133685111D+01 -0.18890838927629D+01
   1   4   1   5 -0.69244596935478D+00 -0.27069124936668D+00
   2   4   1   5 -0.36017887598469D+02 -0.27069084744409D+00
   3   4   1   5  0.65634105842456D+00  0.22380173803129D+00
   1   5   1   5  0.33679539973926D+02 -0.47542219755710D-06
   2   5   1   5  0.14027729803041D+02  0.59637661501960D-01
   3   5   1   5  0.13373950506442D+02  0.33745615310729D+02
   1   6   1   5 -0.26472150055271D+01 -0.23510869887554D+01
   2   6   1   5  0.25225713235416D+01 -0.43294750922149D+01
   3   6   1   5  0.23550773737205D+01  0.26663963548996D+01
   1   7   1   5 -0.69847952739757D+02 -0.28141118675381D+01
   2   7   1   5 -0.34105624064684D+02 -0.56696937724651D+00
   3   7   1   5 -0.68836858704034D+00  0.41103885051202D+01
   1   1   2   5 -0.14096923273338D+01  0.47921544407630D+00
   2   1   2   5 -0.19701917453816D+01  0.19669280453668D+00
   3   1   2   5 -0.16697117592523D+02  0.19019300498430D+00
   1   2   2   5 -0.62630080211915D+01 -0.12674852610735D+01
   2   2   2   5 -0.88088197639226D+01  0.79809797158100D-01
   3   2   2   5  0.76177277218102D+00  0.33162852515301D+01
   1   3   2   5 -0.16378653380943D+02  0.27998681232215D+02
   2   3   2   5  0.17192243771032D+00 -0.14406952748697D+01
   3   3   2   5  0.28859688369451D+01 -0.26641530375366D+01
   1   4   2   5 -0.36331722774664D+02 -0.27069430012416D+00
   2   4   2   5 -0.72349595464744D+02 -0.11144722148121D-07
   3   4   2   5  0.17249258187943D+01  0.37548834140290D+01
   1   5   2   5  0.14027715043778D+02 -0.59641277609987D-01
   2   5   2   5  0.29307935513642D+02  0.68353609886224D-17
   3   5   2   5  0.34646971891464D+02  0.58199002421203D+02
   1   6   2   5  0.28025573027686D+01 -0.26366615964609D+01
   2   6   2   5  0.58189062934126D+01 -0.66519559576558D+01
   3   6   2   5  0.27377365572637D+01  0.17038000588045D+01
   1   7   2   5 -0.35527493665096D+02 -0.92487347650589D+00
   2   7   2   5 -0.39951551944795D+00  0.58867569117216D-01
   3   7   2   5  0.40259153699512D+01  0.65808220511870D+01
   1   1   3   5 -0.93580867580161D+01  0.38490982117080D+01
   2   1   3   5 -0.18153044979802D+02  0.21821237641063D+01
   3   1   3   5 -0.66025038795232D+02 -0.26545139980071D+01
   1   2   3   5  0.24149588305231D+01  0.51564201986639D+01
   2   2   3   5 -0.98281830737554D+00  0.48068946164678D+01
   3   2   3   5  0.94742228648737D+02  0.84740561282040D+02
   1   3   3   5  0.20109762515443D+01 -0.29051482324479D+01
   2   3   3   5  0.15667908175117D+01 -0.17343367664789D+01
   3   3   3   5 -0.23227702276942D+03  0.48845315169281D+03
   1   4   3   5 -0.10686005458316D+01  0.35310800405006D+01
   2   4   3   5 -0.17249460568284D+01  0.37548854181401D+01
   3   4   3   5  0.59056930607382D+03  0.35796109828428D-06
   1   5   3   5  0.13373955053494D+02 -0.33745618836986D+02
   2   5   3   5  0.34646992532337D+02 -0.58199004476373D+02
   3   5   3   5 -0.11752694000230D+04 -0.83764457967120D-16
   1   6   3   5 -0.20115912017882D+00 -0.14299552454550D+01
   2   6   3   5  0.34224676885753D+01 -0.19228674822109D+01
   3   6   3   5  0.76751225127450D+01  0.10556547560311D+03
   1   7   3   5 -0.14296560019107D+01  0.19963275915667D+01
   2   7   3   5 -0.48729662800027D+01 -0.40126976644308D+00
   3   7   3   5  0.56470450791315D+03  0.61601565043709D+02
   1   1   1   6 -0.66850134668403D+00 -0.97605772289659D-01
   2   1   1   6 -0.45057267042225D+00 -0.68936134768906D+00
   3   1   1   6  0.72778998237776D+01  0.67425094157416D+01
   1   2   1   6 -0.89976028402744D+00  0.30462856623484D+01
   2   2   1   6 -0.63827910055853D+01 -0.79456543832188D-02
   3   2   1   6  0.22935698823099D+01 -0.67483986025584D+00
   1   3   1   6 -0.23127588117794D+00  0.67537154329364D+00
   2   3   1   6 -0.37423712713669D+02  0.67536619611040D+00
   3   3   1   6  0.67074451853642D-01  0.22831245390385D+01
   1   4   1   6  0.31508125461787D+02  0.59432609745548D+02
   2   4   1   6  0.16550578254276D+02  0.29439391965024D+02
   3   4   1   6  0.44418601655636D+00  0.11707978339615D+01
   1   5   1   6 -0.26472079084782D+01  0.23510778917139D+01
   2   5   1   6  0.28025549374606D+01  0.26366459824910D+01
   3   5   1   6 -0.20115852419910D+00  0.14299415735525D+01
   1   6   1   6  0.36282302051434D+02  0.61011838640755D-05
   2   6   1   6  0.16342622730697D+02 -0.16636380948661D+01
   3   6   1   6 -0.10832599446444D+02  0.24368642069955D+02
   1   7   1   6 -0.97993772723030D+00  0.31193147284257D+00
   2   7   1   6  0.31956026912092D+02 -0.46700404990710D+00
   3   7   1   6  0.63228137414409D+01  0.31561270071342D+01
   1   1   2   6 -0.40168123074930D+00 -0.84389365360122D+00
   2   1   2   6 -0.94614032193499D-01 -0.23669877676238D+00
   3   1   2   6 -0.60726315197527D+01 -0.89235439000131D+01
   1   2   2   6 -0.38436636472783D+01 -0.25995014584477D+01
   2   2   2   6 -0.91048068648313D+01 -0.18230078954246D+01
   3   2   2   6 -0.23036514968648D+01 -0.29341259901121D+01
   1   3   2   6 -0.35420256058664D+02  0.67537193917425D+00
   2   3   2   6 -0.72843977933518D+02 -0.11417215115347D-06
   3   3   2   6  0.41864170614940D+01  0.30896167667269D+01
   1   4   2   6  0.15910366321370D+02  0.29753310044714D+02
   2   4   2   6  0.17192254477154D+00  0.14406954663182D+01
   3   4   2   6 -0.15667759904530D+01 -0.17343704336259D+01
   1   5   2   6  0.25225803598296D+01  0.43294692545030D+01
   2   5   2   6  0.58189061449866D+01  0.66519556332868D+01
   3   5   2   6  0.34224826472937D+01  0.19228338091715D+01
   1   6   2   6  0.16342631869008D+02  0.16636438479488D+01
   2   6   2   6  0.34222660528122D+02 -0.33317044030283D-15
   3   6   2   6 -0.33014673790178D+02 -0.12181457954063D+02
   1   7   2   6  0.32634087409355D+02 -0.19110076756526D+01
   2   7   2   6 -0.15828978821730D+01  0.29476209238116D+00
   3   7   2   6  0.26027958030122D+01  0.19321489640903D+01
   1   1   3   6  0.10539867768840D+02  0.90599665244899D+01
   2   1   3   6 -0.63241128741980D+01 -0.86755838956819D+01
   3   1   3   6  0.38815025019608D+02  0.50091050393006D+02
   1   2   3   6  0.22081500784691D+01 -0.78933461485934D+00
   2   2   3   6  0.47748591013937D+01  0.48794477456054D+01
   3   2   3   6  0.81121793666071D+02 -0.51632702459227D+02
   1   3   3   6 -0.41193196045885D+01  0.80649166593235D+00
   2   3   3   6 -0.41863852742581D+01  0.30896068528560D+01
   3   3   3   6  0.58590779813530D+03  0.48498268328710D-06
   1   4   3   6  0.40994110003152D+00 -0.77505330770762D+00
   2   4   3   6 -0.28859713272553D+01 -0.26641290287041D+01
   3   4   3   6 -0.23227702155600D+03 -0.48845314832438D+03
   1   5   3   6  0.23550768413286D+01 -0.26664043900441D+01
   2   5   3   6  0.27377394021151D+01 -0.17038239400986D+01
   3   5   3   6  0.76751236815845D+01 -0.10556547226439D+03
   1   6   3   6 -0.10832608590306D+02 -0.24368633087691D+02
   2   6   3   6 -0.33014706535288D+02  0.12181467712431D+02
   3   6   3   6 -0.10284292791574D+04 -0.83764457967120D-16
   1   7   3   6 -0.45647784817393D+01 -0.18174854420552D+01
   2   7   3   6  0.27815592766798D+01 -0.16903360068738D+01
   3   7   3   6  0.52852655262922D+03 -0.36619821958384D+02
   1   1   1   7  0.63442457632275D+00  0.34959374556288D+00
   2   1   1   7  0.12191395826620D+01 -0.85418265072881D-01
   3   1   1   7  0.72269075300870D+01  0.21566520992764D+01
   1   2   1   7 -0.79814633259015D+00 -0.33050374802598D+00
   2   2   1   7 -0.36538397551279D+02 -0.33049742483151D+00
   3   2   1   7  0.33110784499334D+01  0.12269487891728D+01
   1   3   1   7  0.22189349996429D+00 -0.38307277583086D+01
   2   3   1   7 -0.52611303604910D+01 -0.77649357351361D+00
   3   3   1   7 -0.25667018675365D+01  0.56687839809357D+01
   1   4   1   7  0.14906263590803D+00  0.35462609356231D+01
   2   4   1   7 -0.25458193918280D+01 -0.13472830605092D+01
   3   4   1   7  0.33977715996314D+01 -0.34953213660482D+00
   1   5   1   7 -0.69847952605970D+02  0.28141036108513D+01
   2   5   1   7 -0.35527486012647D+02  0.92486141918618D+00
   3   5   1   7 -0.14296610568433D+01 -0.19963337631529D+01
   1   6   1   7 -0.97994457833294D+00 -0.31193422460319D+00
   2   6   1   7  0.32634074579907D+02  0.19110077804626D+01
   3   6   1   7 -0.45647712381978D+01  0.18174868871193D+01
   1   7   1   7  0.32043289796204D+02 -0.61772121711960D-05
   2   7   1   7  0.16241577111806D+02 -0.25475477025263D+01
   3   7   1   7  0.11513685052784D+02 -0.18866194382933D+02
   1   1   2   7  0.11543308958963D+01  0.15750529261323D+00
   2   1   2   7  0.59430708141911D+00  0.41323966725014D+00
   3   1   2   7 -0.11173436191555D+02 -0.47177778907249D-01
   1   2   2   7 -0.37441654166394D+02 -0.33051007002039D+00
   2   2   2   7 -0.73980050517857D+02  0.45551073876420D-08
   3   2   2   7  0.21312156056954D+01 -0.73946287257841D+00
   1   3   2   7 -0.27220108023150D+01  0.18150540528530D+01
   2   3   2   7 -0.91048069019361D+01  0.18230079997085D+01
   3   3   2   7 -0.47748559690997D+01  0.48794499118913D+01
   1   4   2   7 -0.54140035430531D+01 -0.34545691995414D+00
   2   4   2   7 -0.88088195964169D+01 -0.79809681616404D-01
   3   4   2   7  0.98282235410576D+00  0.48068916826519D+01
   1   5   2   7 -0.34105629890104D+02  0.56696017111973D+00
   2   5   2   7 -0.39951562468262D+00 -0.58867601704004D-01
   3   5   2   7 -0.48729614025563D+01  0.40126702940244D+00
   1   6   2   7  0.31956031856316D+02  0.46699589092645D+00
   2   6   2   7 -0.15828979405960D+01 -0.29476209250689D+00
   3   6   2   7  0.27815630506968D+01  0.16903380267588D+01
   1   7   2   7  0.16241575870338D+02  0.25475350673534D+01
   2   7   2   7  0.33257570548019D+02  0.68353609886224D-17
   3   7   2   7  0.36189022225400D+02  0.20444373010350D+02
   1   1   3   7  0.14019770430811D+02  0.25066008613305D+01
   2   1   3   7 -0.11150531964744D+02 -0.34505972248316D+00
   3   1   3   7 -0.56428915558731D+02 -0.54706361678973D+01
   1   2   3   7  0.11798683916225D+01 -0.19664091788533D+01
   2   2   3   7 -0.21312113758156D+01 -0.73946131078822D+00
   3   2   3   7  0.54959177291262D+03 -0.45180960593413D-05
   1   3   3   7  0.45972482141950D+01 -0.22592695578097D+01
   2   3   3   7  0.23036812486653D+01 -0.29341098948167D+01
   3   3   3   7  0.81121797997587D+02  0.51632700981401D+02
   1   4   3   7 -0.32741087022132D+01  0.38646116578211D+01
   2   4   3   7 -0.76178803879236D+00  0.33163027105632D+01
   3   4   3   7  0.94742225525158D+02 -0.84740564730859D+02
   1   5   3   7 -0.68836490242629D+00 -0.41103961071539D+01
   2   5   3   7  0.40259311302952D+01 -0.65808392627925D+01
   3   5   3   7  0.56470450478969D+03 -0.61601568475476D+02
   1   6   3   7  0.63228103504637D+01 -0.31561264515451D+01
   2   6   3   7  0.26027653891875D+01 -0.19321648439858D+01
   3   6   3   7  0.52852655697202D+03  0.36619820468359D+02
   1   7   3   7  0.11513686096046D+02  0.18866195059239D+02
   2   7   3   7  0.36189017376560D+02 -0.20444374534683D+02
   3   7   3   7 -0.10175726272621D+04 -0.83764457967120D-16
  
 2nd derivatives (non-stat.)  - # elements :     432
 qpt -3.33333333E-01  3.33333333E-01  0.00000000E+00   1.0
   1   2   1   1 -0.82867241951007D+00  0.80267387019439D+00
   2   2   1   1 -0.41433621559134D+00  0.40133693623550D+00
   3   2   1   1  0.28342932559247D+02  0.33804819827718D+01
   1   3   1   1  0.63978442467301D+00  0.11429696742885D+01
   2   3   1   1  0.31989221426885D+00  0.57148484276781D+00
   3   3   1   1  0.16153937685417D+02  0.20868111932483D+02
   1   4   1   1  0.61894713165540D+00  0.35107574769654D+00
   2   4   1   1 -0.65486650351963D+00 -0.87076364365504D-02
   3   4   1   1  0.13074641914845D+02 -0.17778322714598D+01
   1   5   1   1 -0.42242032015416D+00  0.12799713236851D+01
   2   5   1   1 -0.14039987730503D+00 -0.55949415268190D+00
   3   5   1   1  0.85495246902627D+01 -0.11427729344482D+02
   1   6   1   1 -0.89727749757044D+00 -0.10058124068561D+01
   2   6   1   1 -0.14520135785267D+01 -0.11639696173545D+01
   3   6   1   1  0.56219414828380D+01  0.13117970350988D+02
   1   7   1   1 -0.61351406724295D+00  0.36048607057486D+00
   2   7   1   1 -0.94848834407194D+00  0.92326327004072D+00
   3   7   1   1 -0.49976730200945D+01  0.12211888260838D+02
   1   2   2   1 -0.41433621559134D+00  0.40133693623550D+00
   2   2   2   1  0.13196978475821D+01 -0.27415891865894D+00
   3   2   2   1  0.14171466252812D+02  0.16902409709581D+01
   1   3   2   1  0.31989221426885D+00  0.57148484276781D+00
   2   3   2   1 -0.54330342127265D-02 -0.71156181537490D+00
   3   3   2   1  0.80769688116115D+01  0.10434055953236D+02
   1   4   2   1 -0.65486650351963D+00 -0.87076364365504D-02
   2   4   2   1 -0.13097329954396D+01 -0.17415270671969D-01
   3   4   2   1  0.26149283881099D+02 -0.35556645828535D+01
   1   5   2   1 -0.14039987730503D+00 -0.55949415268190D+00
   2   5   2   1 -0.28079975850367D+00 -0.11189882942176D+01
   3   5   2   1  0.17099049440814D+02 -0.22855458713518D+02
   1   6   2   1 -0.14520135785036D+01 -0.11639696172724D+01
   2   6   2   1 -0.89727749766327D+00 -0.10058124074908D+01
   3   6   2   1 -0.56219414808325D+01 -0.13117970350947D+02
   1   7   2   1 -0.94848834444612D+00  0.92326327065122D+00
   2   7   2   1 -0.61351406697402D+00  0.36048607070512D+00
   3   7   2   1  0.49976730226494D+01 -0.12211888259937D+02
   1   2   3   1  0.81917550055487D+01 -0.61067144230957D+01
   2   2   3   1  0.40958774759627D+01 -0.30533572319757D+01
   3   2   3   1 -0.62155839546552D+02 -0.11494130197919D+01
   1   3   3   1  0.69302862305888D+01  0.13467374384766D+02
   2   3   3   1  0.34651430841975D+01  0.67336871793776D+01
   3   3   3   1  0.36718465235113D+02  0.54679045370367D+02
   1   4   3   1  0.75641156901118D+01  0.36594157811186D+00
   2   4   3   1  0.15128231431632D+02  0.73188311628972D+00
   3   4   3   1 -0.65712674980394D+02  0.44596013814702D+01
   1   5   3   1 -0.59634624669239D+00 -0.50738126054194D+01
   2   5   3   1 -0.11926924330966D+01 -0.10147625235393D+02
   3   5   3   1  0.32073340302337D+02 -0.53253829708212D+02
   1   6   3   1  0.46922236402970D+01  0.20204554122467D+01
   2   6   3   1 -0.46922236429539D+01 -0.20204554087169D+01
   3   6   3   1  0.30082498531654D+02  0.54403242724291D+02
   1   7   3   1 -0.40989725245881D+01  0.63677456391712D+01
   2   7   3   1  0.40989725216619D+01 -0.63677456332826D+01
   3   7   3   1  0.28994209035307D+02 -0.59138646749411D+02
   1   1   1   2 -0.82867241951007D+00 -0.80267387019439D+00
   2   1   1   2 -0.41433621559134D+00 -0.40133693623550D+00
   3   1   1   2  0.81917550055487D+01  0.61067144230957D+01
   1   2   1   2  0.28758553746501D+02  0.38725553913425D-07
   2   2   1   2  0.14379276852244D+02  0.19362776894032D-07
   3   2   1   2 -0.22112787880538D+02 -0.41742289981186D+02
   1   3   1   2 -0.65129394957527D+02  0.32451359589066D+01
   2   3   1   2 -0.32564697490667D+02  0.16225679807694D+01
   3   3   1   2 -0.32814250184021D+01 -0.26354707124639D+01
   1   4   1   2 -0.91708832285814D+00  0.96232859552054D+00
   2   4   1   2  0.34029536610977D+02  0.28457011647655D+00
   3   4   1   2 -0.94420253801148D+00  0.11934467970849D+01
   1   5   1   2  0.48554517732108D+01  0.76051569582028D-02
   2   5   1   2  0.24007119850744D+01 -0.41581585871775D+01
   3   5   1   2  0.23066403119879D+01  0.81243041240038D+00
   1   6   1   2 -0.24343121777644D+01  0.42011419854307D+01
   2   6   1   2 -0.48350271011128D+01  0.42985070362529D-01
   3   6   1   2 -0.18569055324924D+01  0.15913938994226D+01
   1   7   1   2 -0.37485682584550D+00 -0.12753860634112D+01
   2   7   1   2  0.16886356321803D+02 -0.30603544301944D+02
   3   7   1   2 -0.56145397538534D+00 -0.14144267828430D+01
   1   1   2   2 -0.41433621559134D+00 -0.40133693623550D+00
   2   1   2   2  0.13196978475821D+01  0.27415891865894D+00
   3   1   2   2  0.40958774759627D+01  0.30533572319757D+01
   1   2   2   2  0.14379276852244D+02  0.19362776746002D-07
   2   2   2   2  0.36094551431314D+02  0.99046943313736D-06
   3   2   2   2 -0.11056393939963D+02 -0.20871144990593D+02
   1   3   2   2 -0.32564697490667D+02  0.16225679807694D+01
   2   3   2   2 -0.71969078743847D+00  0.93439710000895D-01
   3   3   2   2 -0.16407125092010D+01 -0.13177353562319D+01
   1   4   2   2  0.33129943355430D+02 -0.11852464010406D+01
   2   4   2   2 -0.15007028285655D+01  0.28488143437759D+00
   3   4   2   2 -0.13195994517989D+01 -0.18064152946500D+01
   1   5   2   2  0.21366181167864D+01 -0.37007359046646D+01
   2   5   2   2 -0.24343170480859D+01 -0.42011452223232D+01
   3   5   2   2  0.35099344483586D+01 -0.10577176099676D+01
   1   6   2   2 -0.45709343712281D+01  0.50040841013294D+00
   2   6   2   2 -0.21161923360353D+01 -0.36653562432004D+01
   3   6   2   2 -0.10179486241885D+01 -0.19771573011720D+01
   1   7   2   2  0.15163661250851D+02 -0.30559381949111D+02
   2   7   2   2  0.32928511267106D+02 -0.61329627636442D+02
   3   7   2   2 -0.27856552322174D+01 -0.11748277828817D+01
   1   1   3   2  0.28342932559247D+02 -0.33804819827718D+01
   2   1   3   2  0.14171466252812D+02 -0.16902409709581D+01
   3   1   3   2 -0.62155839546552D+02  0.11494130197919D+01
   1   2   3   2 -0.24840160958882D+02  0.48890861061412D+02
   2   2   3   2 -0.12420080479135D+02  0.24445430530706D+02
   3   2   3   2 -0.10505960523015D+04  0.17803507370616D-15
   1   3   3   2 -0.42905981770053D+01  0.25530526316113D+01
   2   3   3   2 -0.21452990885027D+01  0.12765263158057D+01
   3   3   3   2  0.54433330144472D+03 -0.20670134644057D+02
   1   4   3   2 -0.66979697123515D+01 -0.12787571131279D+01
   2   4   3   2 -0.28780324680158D+01  0.18369690967785D+01
   3   4   3   2  0.54030415577825D+03 -0.12582376029675D+02
   1   5   3   2  0.15096213842753D+01  0.34882654988859D+01
   2   5   3   2  0.21440178625990D+01  0.12851051607959D+01
   3   5   3   2 -0.34509747311769D+01  0.45353652273323D+01
   1   6   3   2 -0.37757372278034D+01 -0.43676228494946D+00
   2   6   3   2 -0.15907945801476D+01 -0.16509836380204D+01
   3   6   3   2 -0.22022532355286D+01 -0.52563138866740D+01
   1   7   3   2  0.44564209992823D+01 -0.51612333711412D+01
   2   7   3   2  0.46082666698569D+01 -0.17502995954451D+01
   3   7   3   2 -0.25925541864219D+03  0.47420831418647D+03
   1   1   1   3  0.63978442467301D+00 -0.11429696742885D+01
   2   1   1   3  0.31989221426885D+00 -0.57148484276781D+00
   3   1   1   3  0.69302862305888D+01 -0.13467374384766D+02
   1   2   1   3 -0.65129389349322D+02 -0.32451304711060D+01
   2   2   1   3 -0.32564694686565D+02 -0.16225652368692D+01
   3   2   1   3 -0.50855525846224D+01 -0.21361929677900D+01
   1   3   1   3  0.31575589467456D+02 -0.20431896633679D-06
   2   3   1   3  0.15787794712722D+02 -0.10215948347161D-06
   3   3   1   3  0.33992820986664D+02  0.38876080314502D+02
   1   4   1   3 -0.25494857887043D+01 -0.42745365776044D+01
   2   4   1   3  0.32352811017386D+01 -0.56036597250556D+01
   3   4   1   3 -0.90003754610173D+00  0.74192317158267D+00
   1   5   1   3  0.50364231892604D+00  0.14420905437887D+01
   2   5   1   3 -0.17261205994981D+02 -0.29328159847934D+02
   3   5   1   3 -0.87960854921694D+00 -0.33984844180425D+01
   1   6   1   3 -0.15007082123833D+01 -0.28487816737774D+00
   2   6   1   3 -0.35530242700608D+02 -0.31548858139200D-03
   3   6   1   3  0.33829781160389D+01  0.93747885971398D+00
   1   7   1   3  0.49766001596943D+01 -0.70651158700602D-01
   2   7   1   3  0.17413290031434D+01 -0.56743166499169D+01
   3   7   1   3 -0.19250554162154D+00 -0.11504169645576D+01
   1   1   2   3  0.31989221426885D+00 -0.57148484276781D+00
   2   1   2   3 -0.54330342127265D-02  0.71156181537490D+00
   3   1   2   3  0.34651430841975D+01 -0.67336871793776D+01
   1   2   2   3 -0.32564694686565D+02 -0.16225652368692D+01
   2   2   2   3 -0.71970219728215D+00 -0.93447994525127D-01
   3   2   2   3 -0.25427762923112D+01 -0.10680964838950D+01
   1   3   2   3  0.15787794712722D+02 -0.10215948347161D-06
   2   3   2   3  0.33451580484492D+02 -0.21507651154867D-05
   3   3   2   3  0.16996410493026D+02  0.19438040157251D+02
   1   4   2   3  0.20297388560839D+01 -0.35156126757486D+01
   2   4   2   3  0.49766004337994D+01  0.70651513887713D-01
   3   4   2   3 -0.15875765519283D+01 -0.12917404258425D+01
   1   5   2   3 -0.15538521968607D+02 -0.29283988545953D+02
   2   5   2   3 -0.37485093837076D+00  0.12753901051442D+01
   3   5   2   3 -0.46643928178137D+01 -0.46449179995872D+01
   1   6   2   3 -0.34630647217160D+02 -0.14701179666397D+01
   2   6   2   3 -0.69577276450542D+02 -0.21478807111470D+01
   3   6   2   3 -0.29718352765303D+01  0.26545025360197D+01
   1   7   2   3  0.29468596687377D+01 -0.35862629148590D+01
   2   7   2   3 -0.28378976789922D+01 -0.49153918056006D+01
   3   7   2   3 -0.21049738431939D+01 -0.42140555486751D+00
   1   1   3   3  0.16153937685417D+02 -0.20868111932483D+02
   2   1   3   3  0.80769688116115D+01 -0.10434055953236D+02
   3   1   3   3  0.36718465235113D+02 -0.54679045370367D+02
   1   2   3   3 -0.25523744020816D+01  0.38652678302884D+01
   2   2   3   3 -0.12761872010408D+01  0.19326339151442D+01
   3   2   3   3  0.54433330831791D+03  0.20670151280313D+02
   1   3   3   3  0.38370488815185D+02 -0.36466892245807D+02
   2   3   3   3  0.19185244407287D+02 -0.18233446122904D+02
   3   3   3   3 -0.94716760082742D+03  0.17803509728081D-15
   1   4   3   3 -0.19864815352937D+01 -0.56059320136649D+00
   2   4   3   3  0.75921113533377D+00 -0.10011067416656D+01
   3   4   3   3 -0.10543414283016D+01 -0.55467752443819D+01
   1   5   3   3 -0.21529868753919D+01  0.84589060530919D+00
   2   5   3   3  0.35297223508006D+00 -0.76696211760753D+00
   3   5   3   3 -0.26172984115585D+03 -0.47374503970134D+03
   1   6   3   3  0.34393068636313D+00 -0.22874866317998D+01
   2   6   3   3 -0.14379187259810D+00 -0.29766506138935D+01
   3   6   3   3  0.54114016009168D+03  0.10207832953852D+02
   1   7   3   3  0.14787287216103D+01 -0.14400468703952D+01
   2   7   3   3  0.99135041756232D+00 -0.25980963720177D+01
   3   7   3   3  0.53308189631437D+01  0.18603021987041D+01
   1   1   1   4  0.61894713165540D+00 -0.35107574769654D+00
   2   1   1   4 -0.65486650351963D+00  0.87076364365504D-02
   3   1   1   4  0.75641156901118D+01 -0.36594157811186D+00
   1   2   1   4 -0.91709478948847D+00 -0.96232542254411D+00
   2   2   1   4  0.33129938933179D+02  0.11852397890607D+01
   3   2   1   4 -0.63548133925692D+01  0.17170236763057D+01
   1   3   1   4 -0.25494863102023D+01  0.42745365948004D+01
   2   3   1   4  0.20297403710349D+01  0.35156118010913D+01
   3   3   1   4 -0.19124683015724D+01  0.72901140969004D+00
   1   4   1   4  0.33451580485590D+02 -0.21507651151772D-05
   2   4   1   4  0.15787794712735D+02 -0.10215948443785D-06
   3   4   1   4 -0.16996410493659D+02 -0.19438040157251D+02
   1   5   1   4 -0.71970219621008D+00 -0.93447994310457D-01
   2   5   1   4 -0.32564694688820D+02 -0.16225652367305D+01
   3   5   1   4  0.25427762923112D+01  0.10680964838950D+01
   1   6   1   4  0.32928518764082D+02  0.61329629366465D+02
   2   6   1   4  0.16042164001546D+02  0.30726079261208D+02
   3   6   1   4 -0.37847842685968D+01 -0.12464335815447D+01
   1   7   1   4 -0.28379053784591D+01  0.49153873620150D+01
   2   7   1   4 -0.45792246236541D+01 -0.75892392605321D+00
   3   7   1   4 -0.68753900582654D+00 -0.20336635974252D+01
   1   1   2   4 -0.65486650351963D+00  0.87076364365504D-02
   2   1   2   4 -0.13097329954396D+01  0.17415270671969D-01
   3   1   2   4  0.15128231431632D+02 -0.73188311628972D+00
   1   2   2   4  0.34029534416626D+02 -0.28456268899760D+00
   2   2   2   4 -0.15007082267100D+01 -0.28487816403719D+00
   3   2   2   4 -0.33829781160389D+01 -0.93747885971399D+00
   1   3   2   4  0.32352710366293D+01  0.56036655361492D+01
   2   3   2   4  0.49766001581582D+01 -0.70651070855241D-01
   3   3   2   4  0.19250554162154D+00  0.11504169645576D+01
   1   4   2   4  0.15787794712735D+02 -0.10215948443785D-06
   2   4   2   4  0.31575589465805D+02 -0.20431896864118D-06
   3   4   2   4 -0.33992820986326D+02 -0.38876080314502D+02
   1   5   2   4 -0.32564694688820D+02 -0.16225652367304D+01
   2   5   2   4 -0.65129389350758D+02 -0.32451304708478D+01
   3   5   2   4  0.50855525846224D+01  0.21361929677900D+01
   1   6   2   4  0.17764848027921D+02  0.30770250563190D+02
   2   6   2   4  0.50364241143702D+00  0.14420905142097D+01
   3   6   2   4  0.87960854921694D+00  0.33984844180425D+01
   1   7   2   4 -0.57847668693089D+01  0.13291231232537D+01
   2   7   2   4 -0.25494857337711D+01 -0.42745366076255D+01
   3   7   2   4  0.90003754610173D+00 -0.74192317158267D+00
   1   1   3   4  0.13074641914845D+02  0.17778322714598D+01
   2   1   3   4  0.26149283881099D+02  0.35556645828535D+01
   3   1   3   4 -0.65712674980394D+02 -0.44596013814702D+01
   1   2   3   4 -0.48772255896123D+00 -0.68916398209368D+00
   2   2   3   4 -0.34393068636313D+00  0.22874866317998D+01
   3   2   3   4  0.54114015969373D+03  0.10207832551198D+02
   1   3   3   4 -0.48737830404797D+00 -0.11580495016225D+01
   2   3   3   4 -0.14787287216103D+01  0.14400468703952D+01
   3   3   3   4  0.53308189486936D+01  0.18603011729894D+01
   1   4   3   4 -0.19185244407920D+02  0.18233446122904D+02
   2   4   3   4 -0.38370488814846D+02  0.36466892245807D+02
   3   4   3   4 -0.94716760081900D+03  0.12543144034042D-13
   1   5   3   4  0.12761872010408D+01 -0.19326339151442D+01
   2   5   3   4  0.25523744020816D+01 -0.38652678302884D+01
   3   5   3   4  0.54433330837024D+03  0.20670151289558D+02
   1   6   3   4  0.25059591104720D+01 -0.16128527229167D+01
   2   6   3   4  0.21529868753919D+01 -0.84589060530919D+00
   3   6   3   4 -0.26172983555741D+03 -0.47374504303082D+03
   1   7   3   4  0.27456926706275D+01 -0.44051354029912D+00
   2   7   3   4  0.19864815352937D+01  0.56059320136649D+00
   3   7   3   4 -0.10543405327288D+01 -0.55467757428471D+01
   1   1   1   5 -0.42242032015416D+00 -0.12799713236851D+01
   2   1   1   5 -0.14039987730503D+00  0.55949415268190D+00
   3   1   1   5 -0.59634624669239D+00  0.50738126054194D+01
   1   2   1   5  0.48554570130830D+01 -0.76076937481546D-02
   2   2   1   5  0.21366221620322D+01  0.37007335691408D+01
   3   2   1   5  0.83895690830387D+00 -0.35685512005946D+01
   1   3   1   5  0.50363678765594D+00 -0.14420875040286D+01
   2   3   1   5 -0.15538518453590D+02  0.29283995681724D+02
   3   3   1   5 -0.22242012568320D+01  0.23959899996129D+00
   1   4   1   5 -0.71969078636640D+00  0.93439709786225D-01
   2   4   1   5 -0.32564697492923D+02  0.16225679806307D+01
   3   4   1   5  0.16407125092010D+01  0.13177353562319D+01
   1   5   1   5  0.36094551432412D+02  0.99046943350928D-06
   2   5   1   5  0.14379276852257D+02  0.19362776746016D-07
   3   5   1   5  0.11056393940596D+02  0.20871144990593D+02
   1   6   1   5 -0.21161954957073D+01  0.36653544206665D+01
   2   6   1   5  0.27188335365635D+01  0.37083411064209D+01
   3   6   1   5  0.12032941363708D+01 -0.18701480223679D+01
   1   7   1   5 -0.69577271200927D+02  0.21478863392230D+01
   2   7   1   5 -0.34047031730211D+02  0.21475750102613D+01
   3   7   1   5 -0.37539691378746D+00 -0.29998620917349D+01
   1   1   2   5 -0.14039987730503D+00  0.55949415268190D+00
   2   1   2   5 -0.28079975850367D+00  0.11189882942176D+01
   3   1   2   5 -0.11926924330966D+01  0.10147625235393D+02
   1   2   2   5  0.24007148919170D+01  0.41581569089112D+01
   2   2   2   5 -0.24343122312252D+01  0.42011419528557D+01
   3   2   2   5  0.18569055324924D+01 -0.15913938994226D+01
   1   3   2   5 -0.17261213524542D+02  0.29328158034558D+02
   2   3   2   5 -0.37485691956413D+00 -0.12753860913662D+01
   3   3   2   5  0.56145397538534D+00  0.14144267828430D+01
   1   4   2   5 -0.32564697492923D+02  0.16225679806307D+01
   2   4   2   5 -0.65129394958963D+02  0.32451359586484D+01
   3   4   2   5  0.32814250184021D+01  0.26354707124639D+01
   1   5   2   5  0.14379276852257D+02  0.19362776820031D-07
   2   5   2   5  0.28758553744849D+02  0.38725554318682D-07
   3   5   2   5  0.22112787880199D+02  0.41742289981186D+02
   1   6   2   5  0.24547396682755D+01  0.41657637889339D+01
   2   6   2   5  0.48554517717990D+01  0.76052448053621D-02
   3   6   2   5 -0.23066403119879D+01 -0.81243041240038D+00
   1   7   2   5 -0.34946624985758D+02  0.67775849274406D+00
   2   7   2   5 -0.91708830652128D+00  0.96232859909498D+00
   3   7   2   5  0.94420253801148D+00 -0.11934467970849D+01
   1   1   3   5  0.85495246902627D+01  0.11427729344482D+02
   2   1   3   5  0.17099049440814D+02  0.22855458713518D+02
   3   1   3   5  0.32073340302337D+02  0.53253829708212D+02
   1   2   3   5  0.21849426476558D+01 -0.12142213530709D+01
   2   2   3   5  0.37757372278034D+01  0.43676228494946D+00
   3   2   3   5 -0.22022541150587D+01 -0.52563144129344D+01
   1   3   3   5  0.15184567057467D+00  0.34109337756960D+01
   2   3   3   5 -0.44564209992823D+01  0.51612333711412D+01
   3   3   3   5 -0.25925542422239D+03  0.47420831080692D+03
   1   4   3   5  0.21452990885027D+01 -0.12765263158057D+01
   2   4   3   5  0.42905981770053D+01 -0.25530526316113D+01
   3   4   3   5  0.54433330149705D+03 -0.20670134653302D+02
   1   5   3   5  0.12420080479768D+02 -0.24445430530706D+02
   2   5   3   5  0.24840160958543D+02 -0.48890861061413D+02
   3   5   3   5 -0.10505960522931D+04  0.17803509728081D-15
   1   6   3   5  0.63439647832370D+00 -0.22031603380901D+01
   2   6   3   5 -0.15096213842753D+01 -0.34882654988859D+01
   3   6   3   5 -0.34509747488196D+01  0.45353642016220D+01
   1   7   3   5  0.38199372443357D+01  0.31157262099064D+01
   2   7   3   5  0.66979697123515D+01  0.12787571131279D+01
   3   7   3   5  0.54030415612372D+03 -0.12582376423096D+02
   1   1   1   6 -0.89727749757044D+00  0.10058124068561D+01
   2   1   1   6 -0.14520135785036D+01  0.11639696172724D+01
   3   1   1   6  0.46922236402970D+01 -0.20204554122467D+01
   1   2   1   6 -0.24343169946251D+01 -0.42011452548982D+01
   2   2   1   6 -0.45709351428429D+01 -0.50040934407662D+00
   3   2   1   6 -0.35099344483586D+01  0.10577176099676D+01
   1   3   1   6 -0.15007028142388D+01  0.28488143771814D+00
   2   3   1   6 -0.34630646241267D+02  0.14701278489600D+01
   3   3   1   6  0.13195994517989D+01  0.18064152946500D+01
   1   4   1   6  0.32928511266162D+02 -0.61329627635322D+02
   2   4   1   6  0.17764850026211D+02 -0.30770245710053D+02
   3   4   1   6  0.27856552322174D+01  0.11748277828817D+01
   1   5   1   6 -0.21161923910629D+01 -0.36653562131338D+01
   2   5   1   6  0.24547420013051D+01 -0.41657646474575D+01
   3   5   1   6  0.10179486241885D+01  0.19771573011720D+01
   1   6   1   6  0.36094551432633D+02  0.99046943392792D-06
   2   6   1   6  0.21715274538369D+02  0.97110665515358D-06
   3   6   1   6  0.11056393940967D+02  0.20871144990593D+02
   1   7   1   6 -0.71969080380324D+00  0.93439706425509D-01
   2   7   1   6  0.31845006634898D+02 -0.15291282606096D+01
   3   7   1   6  0.16407125092010D+01  0.13177353562319D+01
   1   1   2   6 -0.14520135785267D+01  0.11639696173545D+01
   2   1   2   6 -0.89727749766327D+00  0.10058124074908D+01
   3   1   2   6 -0.46922236429539D+01  0.20204554087169D+01
   1   2   2   6 -0.48350290111309D+01 -0.42986661563634D-01
   2   2   2   6 -0.21161954406798D+01  0.36653544507331D+01
   3   2   2   6 -0.12032941363708D+01  0.18701480223679D+01
   1   3   2   6 -0.35530239496814D+02  0.31133144283505D-03
   2   3   2   6 -0.69577271202368D+02  0.21478863389648D+01
   3   3   2   6  0.37539691378746D+00  0.29998620917349D+01
   1   4   2   6  0.16042154955259D+02 -0.30726083357220D+02
   2   4   2   6  0.50363688016691D+00 -0.14420874744497D+01
   3   4   2   6  0.22242012568320D+01 -0.23959899996129D+00
   1   5   2   6  0.27188347311899D+01 -0.37083413076871D+01
   2   5   2   6  0.48554570116712D+01 -0.76077815953141D-02
   3   5   2   6 -0.83895690830387D+00  0.35685512005946D+01
   1   6   2   6  0.21715274538369D+02  0.97110665522759D-06
   2   6   2   6  0.36094551430956D+02  0.99046943079781D-06
   3   6   2   6 -0.11056393939362D+02 -0.20871144990593D+02
   1   7   2   6  0.31845006634898D+02 -0.15291282606096D+01
   2   7   2   6 -0.71969080072822D+00  0.93439706444683D-01
   3   7   2   6 -0.16407125092010D+01 -0.13177353562319D+01
   1   1   3   6  0.56219414828380D+01 -0.13117970350988D+02
   2   1   3   6 -0.56219414808325D+01  0.13117970350947D+02
   3   1   3   6  0.30082498531654D+02 -0.54403242724291D+02
   1   2   3   6 -0.21440178625990D+01 -0.12851051607959D+01
   2   2   3   6 -0.63439647832370D+00  0.22031603380901D+01
   3   2   3   6 -0.34509738516468D+01  0.45353647010720D+01
   1   3   3   6  0.28780324680158D+01 -0.18369690967785D+01
   2   3   3   6 -0.38199372443357D+01 -0.31157262099064D+01
   3   3   3   6  0.54030415617620D+03 -0.12582376432329D+02
   1   4   3   6 -0.46082666698569D+01  0.17502995954451D+01
   2   4   3   6 -0.15184567057467D+00 -0.34109337756960D+01
   3   4   3   6 -0.25925541862394D+03  0.47420831413640D+03
   1   5   3   6  0.15907945801476D+01  0.16509836380204D+01
   2   5   3   6 -0.21849426476558D+01  0.12142213530709D+01
   3   5   3   6 -0.22022541327014D+01 -0.52563133872240D+01
   1   6   3   6  0.12420080480138D+02 -0.24445430530706D+02
   2   6   3   6 -0.12420080478534D+02  0.24445430530706D+02
   3   6   3   6 -0.10505960522963D+04  0.12543144034042D-13
   1   7   3   6  0.21452990885027D+01 -0.12765263158057D+01
   2   7   3   6 -0.21452990885027D+01  0.12765263158057D+01
   3   7   3   6  0.54433330109817D+03 -0.20670134250012D+02
   1   1   1   7 -0.61351406724295D+00 -0.36048607057486D+00
   2   1   1   7 -0.94848834444612D+00 -0.92326327065122D+00
   3   1   1   7 -0.40989725245881D+01 -0.63677456391712D+01
   1   2   1   7 -0.37485084465213D+00  0.12753900771892D+01
   2   2   1   7  0.15163670747061D+02  0.30559378827117D+02
   3   2   1   7  0.46643928178137D+01  0.46449179995872D+01
   1   3   1   7  0.49766004353355D+01  0.70651601733074D-01
   2   3   1   7  0.29468614593300D+01  0.35862642325488D+01
   3   3   1   7  0.15875765519283D+01  0.12917404258425D+01
   1   4   1   7 -0.28378976254400D+01 -0.49153918382226D+01
   2   4   1   7 -0.57847573256975D+01 -0.13291289171513D+01
   3   4   1   7  0.21049738431939D+01  0.42140555486751D+00
   1   5   1   7 -0.69577276449100D+02 -0.21478807114051D+01
   2   5   1   7 -0.34946629258037D+02 -0.67776274724658D+00
   3   5   1   7  0.29718352765303D+01 -0.26545025360197D+01
   1   6   1   7 -0.71970221364692D+00 -0.93447990949741D-01
   2   6   1   7  0.31844992420951D+02  0.15291172321851D+01
   3   6   1   7  0.25427762923112D+01  0.10680964838950D+01
   1   7   1   7  0.33451580485810D+02 -0.21507651155589D-05
   2   7   1   7  0.17663785731068D+02 -0.20486056326937D-05
   3   7   1   7 -0.16996410494030D+02 -0.19438040157251D+02
   1   1   2   7 -0.94848834407194D+00 -0.92326327004072D+00
   2   1   2   7 -0.61351406697402D+00 -0.36048607070512D+00
   3   1   2   7  0.40989725216619D+01  0.63677456332826D+01
   1   2   2   7  0.16886354773435D+02  0.30603550129098D+02
   2   2   2   7  0.32928518765026D+02  0.61329629367584D+02
   3   2   2   7  0.37847842685968D+01  0.12464335815447D+01
   1   3   2   7  0.17413192136752D+01  0.56743112818558D+01
   2   3   2   7 -0.28379054320113D+01  0.49153873293930D+01
   3   3   2   7  0.68753900582654D+00  0.20336635974252D+01
   1   4   2   7 -0.45792266601031D+01  0.75892481790665D+00
   2   4   2   7 -0.25494862552691D+01  0.42745366248216D+01
   3   4   2   7  0.19124683015724D+01 -0.72901140969004D+00
   1   5   2   7 -0.34047033774590D+02 -0.21475652253048D+01
   2   5   2   7 -0.91709477315163D+00 -0.96232542611855D+00
   3   5   2   7  0.63548133925692D+01 -0.17170236763057D+01
   1   6   2   7  0.31844992420951D+02  0.15291172321851D+01
   2   6   2   7 -0.71970221057190D+00 -0.93447990968914D-01
   3   6   2   7 -0.25427762923112D+01 -0.10680964838950D+01
   1   7   2   7  0.17663785731068D+02 -0.20486056326937D-05
   2   7   2   7  0.33451580484133D+02 -0.21507651154867D-05
   3   7   2   7  0.16996410492425D+02  0.19438040157251D+02
   1   1   3   7 -0.49976730200945D+01 -0.12211888260838D+02
   2   1   3   7  0.49976730226494D+01  0.12211888259937D+02
   3   1   3   7  0.28994209035307D+02  0.59138646749411D+02
   1   2   3   7 -0.35297223508006D+00  0.76696211760753D+00
   2   2   3   7 -0.25059591104720D+01  0.16128527229167D+01
   3   2   3   7 -0.26172983557565D+03 -0.47374504308088D+03
   1   3   3   7 -0.75921113533377D+00  0.10011067416656D+01
   2   3   3   7 -0.27456926706275D+01  0.44051354029912D+00
   3   3   3   7 -0.10543414138515D+01 -0.55467762700966D+01
   1   4   3   7 -0.99135041756232D+00  0.25980963720177D+01
   2   4   3   7  0.48737830404797D+00  0.11580495016225D+01
   3   4   3   7  0.53308198442664D+01  0.18603016714546D+01
   1   5   3   7  0.14379187259810D+00  0.29766506138935D+01
   2   5   3   7  0.48772255896123D+00  0.68916398209368D+00
   3   5   3   7  0.54114016003920D+03  0.10207832944619D+02
   1   6   3   7  0.12761872010408D+01 -0.19326339151442D+01
   2   6   3   7 -0.12761872010408D+01  0.19326339151442D+01
   3   6   3   7  0.54433330797136D+03  0.20670150886268D+02
   1   7   3   7 -0.19185244408290D+02  0.18233446122904D+02
   2   7   3   7  0.19185244406685D+02 -0.18233446122904D+02
   3   7   3   7 -0.94716760082221D+03  0.17803509728081D-15

 List of bloks and their characteristics 
  
 2nd derivatives (non-stat.)  - # elements :     468
 qpt  0.00000000E+00  0.00000000E+00  0.00000000E+00   1.0
  
 2nd derivatives (non-stat.)  - # elements :     434
 qpt  3.33333333E-01  0.00000000E+00  0.00000000E+00   1.0
  
 2nd derivatives (non-stat.)  - # elements :     432
 qpt -3.33333333E-01  3.33333333E-01  0.00000000E+00   1.0
